
 Primary working directories    : /tmp/cayo
 Secondary working directories  : /tmp/cayo
 Wavefunction directory         : /home/cayo/wfu/
 Main file repository           : /tmp/cayo/

 SHA1      : a5b627b8810c26ab4cccee7745b6baa8eca1b49b
 NAME      : 2015.1.39
 ARCHNAME  : linux/x86_64
 FC        : /opt/gcc/8.2.0/bin/gfortran
 BLASLIB   : -Wl,-_start-group /opt/intel/mkl/lib/intel64/libmkl_gf_ilp64.a /opt/intel/mkl/lib/intel64/libmkl_gnu_thread.a /opt/intel/mkl/lib/intel64/libmkl_core.a -Wl,-_end-group
 id        : liege

 Nodes     nprocs
 cayo-pc      4

 Using customized tuning parameters: mindgm=1; mindgv=20; mindgc=4; mindgr=1; noblas=0; minvec=7
 default implementation of scratch files=sf  

 memory,300,m
 basis=6-31++G(2d,2p)
 symmetry,nosym
 bohr
 r1=2.088356031
 b1=r1/sqrt(3)
  thresh,pspace=10
 gprint,orbitals,civector,basis
 
 cont= 61
 passonp=0.01
 
 
 r=2.05970623
 geometry={N1,
           N2,N1,r}
 {hf}
 {multi}
 {optg}
 
 do i=1,cont
 ch=(i-(cont-1)/2-1)*passonp
 r=2.09970623+ch
 symmetry,nosym
 geometry={N1,
           N2,N1,r}
 symmetry,nosym
 noorient
 x(i)=r
 {hf}
 {multi}
 e(i)=energy
 enddo
 table,x,e

 Variables initialized (889), CPU time= 0.01 sec
 Commands  initialized (702), CPU time= 0.00 sec, 572 directives.
 Default parameters read. Elapsed time= 0.05 sec

 Checking input...
 Passed
1


                                         ***  PROGRAM SYSTEM MOLPRO  ***
                                       Copyright, TTI GmbH Stuttgart, 2015
                                    Version 2015.1 linked Oct  7 2018 09:40:44


 **********************************************************************************************************************************
 LABEL *                                                                                 
  64 bit mpp version                                                                     DATE: 22-Feb-19          TIME: 10:45:15  
 **********************************************************************************************************************************

 SHA1:             a5b627b8810c26ab4cccee7745b6baa8eca1b49b
 **********************************************************************************************************************************

 Variable memory set to  300000000 words,  buffer space   230000 words

 SETTING BASIS          =    6-31++G(2D,2P)
 SETTING R1             =         2.08835603                                  
 SETTING B1             =         1.20571292                                  

 THRESHOLDS:

 ZERO    =  1.00D-12  ONEINT  =  1.00D-12  TWOINT  =  1.00D-11  PREFAC  =  1.00D-14  LOCALI  =  1.00D-09  EORDER  =  1.00D-04
 ENERGY  =  0.00D+00  ETEST   =  0.00D+00  EDENS   =  0.00D+00  THRDEDEF=  1.00D-06  GRADIENT=  1.00D-02  STEP    =  1.00D-03
 ORBITAL =  1.00D-05  CIVEC   =  1.00D-05  COEFF   =  1.00D-04  PRINTCI =  5.00D-02  PUNCHCI =  9.90D+01  OPTGRAD =  3.00D-04
 OPTENERG=  1.00D-06  OPTSTEP =  3.00D-04  THRGRAD =  1.00D-10  COMPRESS=  1.00D-11  VARMIN  =  1.00D-07  VARMAX  =  1.00D-03
 THRDOUB =  0.00D+00  THRDIV  =  1.00D-05  THRRED  =  1.00D-07  THRPSP  =  1.00D+01  THRDC   =  1.00D-10  THRCS   =  1.00D-10
 THRNRM  =  1.00D-08  THREQ   =  0.00D+00  THRDE   =  1.00D+00  THRREF  =  1.00D-05  SPARFAC =  1.00D+00  THRDLP  =  1.00D-07
 THRDIA  =  1.00D-10  THRDLS  =  1.00D-07  THRGPS  =  0.00D+00  THRKEX  =  0.00D+00  THRDIS  =  2.00D-01  THRVAR  =  1.00D-10
 THRLOC  =  1.00D-06  THRGAP  =  1.00D-06  THRLOCT = -1.00D+00  THRGAPT = -1.00D+00  THRORB  =  1.00D-06  THRMLTP =  0.00D+00
 THRCPQCI=  1.00D-10  KEXTA   =  0.00D+00  THRCOARS=  0.00D+00  SYMTOL  =  1.00D-06  GRADTOL =  1.00D-06  THROVL  =  1.00D-08
 THRORTH =  1.00D-08  GRID    =  1.00D-06  GRIDMAX =  1.00D-03  DTMAX   =  0.00D+00  THROCCDE=  1.00D-01  THROCCDE=  1.00D-01



 SETTING CONT           =        61.00000000                                  
 SETTING PASSONP        =         0.01000000                                  
 SETTING R              =         2.05970623                                  
 ZSYMEL=NOSYM
 ZUNIT=BOHR



 Recomputing integrals since basis changed


 Using spherical harmonics

 Library entry N      S 6-31G                selected for orbital group  1
 Library entry N      S 6-31++G              selected for orbital group  1
 Library entry N      P 6-31G                selected for orbital group  1
 Library entry N      P 6-31++G              selected for orbital group  1
 Library entry N      D 6-31G2D              selected for orbital group  1


 PROGRAM * SEWARD (Integral evaluation for generally contracted gaussian basis sets)     Author: Roland Lindh, 1990

 Geometry written to block  1 of record 700

 Orientation using atomic masses  
 Molecule type: Linear
 Rotational constants:      60.7433202     60.7433202      0.0000000 GHz  (calculated with average atomic masses)

 Point group  C1  



 ATOMIC COORDINATES

 NR  ATOM    CHARGE       X              Y              Z

   1  N1      7.00    0.000000000    0.000000000   -1.029853115
   2  N2      7.00    0.000000000    0.000000000    1.029853115

 Bond lengths in Bohr (Angstrom)

 1-2  2.059706230
     ( 1.089949598)


 BASIS DATA

   Nr Sym  Nuc  Type         Exponents   Contraction coefficients

    1.1 A     1  1s        4173.511500     0.001835
                            627.457910     0.013995
                            142.902090     0.068587
                             40.234329     0.232241
                             12.820213     0.469070
                              4.390437     0.360455
    2.1 A     1  1s          11.626362    -0.114961
                              2.716280    -0.169117
                              0.772218     1.145852
    3.1 A     1  1s           0.212032     1.000000
    4.1 A     1  1s           0.063900     1.000000
    5.1 A     1  2px         11.626362     0.067580
                              2.716280     0.323907
                              0.772218     0.740895
    6.1 A     1  2py         11.626362     0.067580
                              2.716280     0.323907
                              0.772218     0.740895
    7.1 A     1  2pz         11.626362     0.067580
                              2.716280     0.323907
                              0.772218     0.740895
    8.1 A     1  2px          0.212032     1.000000
    9.1 A     1  2py          0.212032     1.000000
   10.1 A     1  2pz          0.212032     1.000000
   11.1 A     1  2px          0.063900     1.000000
   12.1 A     1  2py          0.063900     1.000000
   13.1 A     1  2pz          0.063900     1.000000
   14.1 A     1  3d0          1.600000     1.000000
   15.1 A     1  3d2-         1.600000     1.000000
   16.1 A     1  3d1+         1.600000     1.000000
   17.1 A     1  3d2+         1.600000     1.000000
   18.1 A     1  3d1-         1.600000     1.000000
   19.1 A     1  3d0          0.400000     1.000000
   20.1 A     1  3d2-         0.400000     1.000000
   21.1 A     1  3d1+         0.400000     1.000000
   22.1 A     1  3d2+         0.400000     1.000000
   23.1 A     1  3d1-         0.400000     1.000000
   24.1 A     2  1s        4173.511500     0.001835
                            627.457910     0.013995
                            142.902090     0.068587
                             40.234329     0.232241
                             12.820213     0.469070
                              4.390437     0.360455
   25.1 A     2  1s          11.626362    -0.114961
                              2.716280    -0.169117
                              0.772218     1.145852
   26.1 A     2  1s           0.212032     1.000000
   27.1 A     2  1s           0.063900     1.000000
   28.1 A     2  2px         11.626362     0.067580
                              2.716280     0.323907
                              0.772218     0.740895
   29.1 A     2  2py         11.626362     0.067580
                              2.716280     0.323907
                              0.772218     0.740895
   30.1 A     2  2pz         11.626362     0.067580
                              2.716280     0.323907
                              0.772218     0.740895
   31.1 A     2  2px          0.212032     1.000000
   32.1 A     2  2py          0.212032     1.000000
   33.1 A     2  2pz          0.212032     1.000000
   34.1 A     2  2px          0.063900     1.000000
   35.1 A     2  2py          0.063900     1.000000
   36.1 A     2  2pz          0.063900     1.000000
   37.1 A     2  3d0          1.600000     1.000000
   38.1 A     2  3d2-         1.600000     1.000000
   39.1 A     2  3d1+         1.600000     1.000000
   40.1 A     2  3d2+         1.600000     1.000000
   41.1 A     2  3d1-         1.600000     1.000000
   42.1 A     2  3d0          0.400000     1.000000
   43.1 A     2  3d2-         0.400000     1.000000
   44.1 A     2  3d1+         0.400000     1.000000
   45.1 A     2  3d2+         0.400000     1.000000
   46.1 A     2  3d1-         0.400000     1.000000

 NUCLEAR CHARGE:                   14
 NUMBER OF PRIMITIVE AOS:          76
 NUMBER OF SYMMETRY AOS:           72
 NUMBER OF CONTRACTIONS:           46   (  46A   )
 NUMBER OF CORE ORBITALS:           2   (   2A   )
 NUMBER OF VALENCE ORBITALS:        8   (   8A   )


 NUCLEAR REPULSION ENERGY   23.78980035

 EXTRA SYMMETRY OF AOS IN SYMMETRY 1:   1 1 1 1 2 3 1 2 3 1   2 3 1 1 4 2 5 3 1 4   2 5 3 1 1 1 1 2 3 1   2 3 1 2 3 1 1 4 2 5
                                        3 1 4 2 5 3

 Eigenvalues of metric

         1 0.224E-03 0.135E-02 0.323E-01 0.323E-01 0.527E-01 0.104E+00 0.107E+00 0.107E+00


 Contracted 2-electron integrals neglected if value below      1.0D-11
 AO integral compression algorithm  1   Integral accuracy      1.0D-11

     1.835 MB (compressed) written to integral file ( 23.4%)

     Node minimum: 0.262 MB, node maximum: 0.524 MB


 NUMBER OF SORTED TWO-ELECTRON INTEGRALS:     146340.     BUFFER LENGTH:  32768
 NUMBER OF SEGMENTS:   1  SEGMENT LENGTH:     146340      RECORD LENGTH: 524288

 Memory used in sort:       0.70 MW

 SORT1 READ      893019. AND WROTE       32044. INTEGRALS IN      1 RECORDS. CPU TIME:     0.02 SEC, REAL TIME:     0.02 SEC
 SORT2 READ      129929. AND WROTE      584821. INTEGRALS IN      4 RECORDS. CPU TIME:     0.01 SEC, REAL TIME:     0.01 SEC

 Node minimum:      145800.  Node maximum:      146611. integrals

 OPERATOR DM      FOR CENTER  0  COORDINATES:    0.000000    0.000000    0.000000


 **********************************************************************************************************************************
 DATASETS  * FILE   NREC   LENGTH (MB)   RECORD NAMES
              1      18       19.95       500      610      700      900      950      970     1000      129      960     1100   
                                          VAR    BASINP    GEOM    SYMINP    ZMAT    AOBASIS   BASIS     P2S    ABASIS      S 
                                         1400     1410     1200     1210     1080     1600     1650     1700   
                                           T        V       H0       H01     AOSYM     SMH    MOLCAS    OPER   

 PROGRAMS   *        TOTAL       INT
 CPU TIMES  *         0.31      0.19
 REAL TIME  *         0.47 SEC
 DISK USED  *        17.65 MB      
 GA USED    *         0.00 MB       (max)       0.00 MB       (current)
 **********************************************************************************************************************************


 PROGRAM * RHF-SCF (CLOSED SHELL)       Authors: W. Meyer, H.-J. Werner


 NUMBER OF ELECTRONS:       7+    7-    SPACE SYMMETRY=1    SPIN SYMMETRY: Singlet 
 CONVERGENCE THRESHOLDS:    1.00E-06 (Density)    1.00E-07 (Energy)
 MAX. NUMBER OF ITERATIONS:       60
 INTERPOLATION TYPE:            DIIS
 INTERPOLATION STEPS:              2 (START)      1 (STEP)
 LEVEL SHIFTS:                  0.00 (CLOSED)  0.00 (OPEN) 




   Atom=N  basis=MINAO             lmin=0  lmax=1

 Orbital guess generated from atomic densities. Full valence occupancy:    7

 Molecular orbital dump at record        2100.2

 Initial occupancy:   7

 ITERATION    DDIFF          GRAD             ENERGY        2-EL.EN.            DIPOLE MOMENTS         DIIS   ORB.
    1      0.000D+00      0.000D+00      -108.94014910    122.090327   -0.00000   -0.00000   -0.00000    0    start
    2      0.000D+00      0.670D-02      -108.95213382    123.690897   -0.00000   -0.00000   -0.00000    1    diag
    3      0.806D-02      0.173D-02      -108.95288065    123.345064   -0.00000    0.00000   -0.00000    2    diag
    4      0.231D-02      0.347D-03      -108.95293412    123.370471   -0.00000    0.00000   -0.00000    3    diag
    5      0.373D-03      0.419D-04      -108.95293489    123.370987   -0.00000   -0.00000   -0.00000    4    diag
    6      0.136D-03      0.551D-05      -108.95293491    123.371413    0.00000    0.00000   -0.00000    5    diag
    7      0.124D-04      0.103D-05      -108.95293491    123.371399   -0.00000    0.00000   -0.00000    6    diag
    8      0.321D-05      0.935D-07      -108.95293491    123.371406   -0.00000    0.00000   -0.00000    7    diag
    9      0.516D-06      0.434D-08      -108.95293491    123.371406   -0.00000   -0.00000   -0.00000    0    orth

 Final occupancy:   7

 !RHF STATE 1.1 Energy               -108.952934912254
 Nuclear energy                        23.78980035
 One-electron energy                 -194.42843816
 Two-electron energy                   61.68570289
 Virial quotient                       -1.00344259
 !RHF STATE 1.1 Dipole moment          -0.00000000    -0.00000000    -0.00000000
 Dipole moment /Debye                  -0.00000000    -0.00000000    -0.00000000

 ELECTRON ORBITALS
 =================


   Orb  Occ    Energy  Couls-En    Coefficients

                                   1 1s      1 1s      1 1s      1 1s      1 2px     1 2py     1 2pz     1 2px     1 2py     1 2pz  
                                   1 2px     1 2py     1 2pz     1 3d0     1 3d2-    1 3d1+    1 3d2+    1 3d1-    1 3d0     1 3d2- 
                                   1 3d1+    1 3d2+    1 3d1-    2 1s      2 1s      2 1s      2 1s      2 2px     2 2py     2 2pz  
                                   2 2px     2 2py     2 2pz     2 2px     2 2py     2 2pz     2 3d0     2 3d2-    2 3d1+    2 3d2+ 
                                   2 3d1-    2 3d0     2 3d2-    2 3d1+    2 3d2+    2 3d1- 

   1.1   2   -15.6985  -43.5234  0.704337  0.017250 -0.005056  0.000983 -0.000000 -0.000000  0.001738 -0.000000 -0.000000 -0.002472
                                 0.000000  0.000000  0.001266  0.000669  0.000000  0.000000  0.000000 -0.000000 -0.001954  0.000000
                                -0.000000  0.000000 -0.000000  0.704337  0.017250 -0.005056  0.000983 -0.000000  0.000000 -0.001738
                                 0.000000  0.000000  0.002472  0.000000 -0.000000 -0.001266  0.000669 -0.000000  0.000000  0.000000
                                -0.000000 -0.001954 -0.000000 -0.000000 -0.000000 -0.000000

   2.1   2   -15.6949  -43.5206  0.704605  0.017006 -0.012803  0.035024  0.000000  0.000000  0.002382  0.000000  0.000000 -0.003567
                                -0.000000  0.000000  0.008945  0.000934 -0.000000 -0.000000 -0.000000  0.000000  0.000366 -0.000000
                                 0.000000  0.000000  0.000000 -0.704605 -0.017006  0.012803 -0.035024  0.000000 -0.000000  0.002382
                                -0.000000 -0.000000 -0.003567 -0.000000 -0.000000  0.008945 -0.000934 -0.000000 -0.000000  0.000000
                                 0.000000 -0.000366  0.000000  0.000000 -0.000000  0.000000

   3.1   2    -1.4827  -11.4812 -0.160172  0.338004  0.199104 -0.011124  0.000000 -0.000000  0.224832  0.000000 -0.000000  0.030021
                                -0.000000  0.000000 -0.005700  0.020739  0.000000 -0.000000 -0.000000  0.000000  0.010204 -0.000000
                                 0.000000  0.000000 -0.000000 -0.160172  0.338004  0.199104 -0.011124 -0.000000  0.000000 -0.224832
                                -0.000000  0.000000 -0.030021  0.000000 -0.000000  0.005700  0.020739 -0.000000  0.000000  0.000000
                                -0.000000  0.010204  0.000000  0.000000 -0.000000 -0.000000

   4.1   2    -0.7785   -8.4300 -0.144691  0.332917  0.480147 -0.314006  0.000000  0.000000 -0.219140 -0.000000 -0.000000 -0.077270
                                 0.000000 -0.000000 -0.092251 -0.004335 -0.000000 -0.000000  0.000000 -0.000000 -0.006116  0.000000
                                 0.000000 -0.000000 -0.000000  0.144691 -0.332917 -0.480147  0.314006  0.000000  0.000000 -0.219140
                                 0.000000  0.000000 -0.077270 -0.000000 -0.000000 -0.092251  0.004335  0.000000 -0.000000  0.000000
                                -0.000000  0.006116 -0.000000  0.000000 -0.000000 -0.000000

   5.1   2    -0.6365   -8.4477  0.053532 -0.105036 -0.284407 -0.041965  0.000000  0.000000  0.463392 -0.000000 -0.000000  0.182169
                                -0.000000  0.000000  0.005808  0.018968 -0.000000  0.000000 -0.000000  0.000000  0.002209  0.000000
                                -0.000000  0.000000 -0.000000  0.053532 -0.105036 -0.284407 -0.041965  0.000000  0.000000 -0.463392
                                 0.000000  0.000000 -0.182169  0.000000 -0.000000 -0.005808  0.018968 -0.000000 -0.000000  0.000000
                                -0.000000  0.002209  0.000000 -0.000000 -0.000000 -0.000000

   6.1   2    -0.6187   -8.6698 -0.000000 -0.000000  0.000000 -0.000000  0.422764 -0.099635  0.000000  0.227733 -0.053671  0.000000
                                 0.010684 -0.002518 -0.000000 -0.000000 -0.000000  0.024322 -0.000000 -0.005732  0.000000 -0.000000
                                 0.038333  0.000000 -0.009034  0.000000  0.000000 -0.000000  0.000000  0.422764 -0.099635  0.000000
                                 0.227733 -0.053671  0.000000  0.010684 -0.002518 -0.000000 -0.000000 -0.000000 -0.024322 -0.000000
                                 0.005732 -0.000000  0.000000 -0.038333 -0.000000  0.009034

   7.1   2    -0.6187   -8.6698 -0.000000 -0.000000 -0.000000 -0.000000  0.099635  0.422764 -0.000000  0.053671  0.227733 -0.000000
                                 0.002518  0.010684 -0.000000  0.000000  0.000000  0.005732  0.000000  0.024322 -0.000000 -0.000000
                                 0.009034 -0.000000  0.038333 -0.000000 -0.000000  0.000000  0.000000  0.099635  0.422764  0.000000
                                 0.053671  0.227733 -0.000000  0.002518  0.010684 -0.000000 -0.000000  0.000000 -0.005732  0.000000
                                -0.024322  0.000000 -0.000000 -0.009034  0.000000 -0.038333

 HOMO      7.1    -0.618717 =     -16.8361eV
 LUMO      8.1     0.131897 =       3.5891eV
 LUMO-HOMO         0.750613 =      20.4252eV


 **********************************************************************************************************************************
 DATASETS  * FILE   NREC   LENGTH (MB)   RECORD NAMES
              1      18       19.95       500      610      700      900      950      970     1000      129      960     1100   
                                          VAR    BASINP    GEOM    SYMINP    ZMAT    AOBASIS   BASIS     P2S    ABASIS      S 
                                         1400     1410     1200     1210     1080     1600     1650     1700   
                                           T        V       H0       H01     AOSYM     SMH    MOLCAS    OPER   

              2       4        2.79       700     1000      520     2100   
                                         GEOM     BASIS   MCVARS     RHF  

 PROGRAMS   *        TOTAL        HF       INT
 CPU TIMES  *         0.37      0.06      0.19
 REAL TIME  *         0.53 SEC
 DISK USED  *       109.35 MB      
 SF USED    *         0.01 MB      
 GA USED    *         0.00 MB       (max)       0.00 MB       (current)
 **********************************************************************************************************************************


 PROGRAM * MULTI (Direct Multiconfiguration SCF)       Authors: P.J. Knowles, H.-J. Werner (1984)     S.T. Elbert (1988)


 Number of closed-shell orbitals:   2 (   2 )
 Number of active  orbitals:        8 (   8 )
 Number of external orbitals:      36 (  36 )

 State symmetry 1

 Number of electrons:    10    Spin symmetry=Singlet   Space symmetry=1
 Number of states:        1
 Number of CSFs:       1176   (3136 determinants, 3136 intermediate states)

 Molecular orbitals read from record     2100.2  Type=RHF/CANONICAL (state 1.1)
 *** IN SYMMETRY 1 ORBITAL  6 SYMMETRY CONTAMINATION OF 0.191D+00 HAS BEEN REMOVED
 *** IN SYMMETRY 1 ORBITAL  7 SYMMETRY CONTAMINATION OF 0.191D+00 HAS BEEN REMOVED
 *** IN SYMMETRY 1 ORBITAL  8 SYMMETRY CONTAMINATION OF 0.305D+00 HAS BEEN REMOVED
 *** IN SYMMETRY 1 ORBITAL  9 SYMMETRY CONTAMINATION OF 0.305D+00 HAS BEEN REMOVED

 EXTRA SYMMETRY OF MOS IN SYMMETRY 1:   1 1 1 1 1 2 3 2 3 1   1 2 3 1 3 2 1 1 1 4   5 3 2 3 2 1 1 3 2 4   5 1 3 2 1 1 3 2 1 4
                                        5 4 5 3 2 1

 Wavefunction dump at record             2140.2

 Convergence thresholds  0.10E-04 (gradient)  0.10E-07 (energy)  0.10E-02 (step length)

 Number of orbital rotations:      376   (    16 Core/Active     72 Core/Virtual   0 Active/Active    288 Active/Virtual)
 Total number of variables:       3512


 ITER. MIC  NCI  NEG     ENERGY(VAR)     ENERGY(PROJ)   ENERGY CHANGE     GRAD(0)  GRAD(ORB)   GRAD(CI)     STEP       TIME

   1  160   29    0    -108.97785159    -109.08621900   -0.10836741    0.04379677 0.00122334 0.26821476  0.13D+01      0.14
   2   26   38    0    -109.09632011    -109.09885066   -0.00253055    0.06334139 0.00000021 0.00000386  0.12D+00      0.28
   3   20   24    0    -109.09885292    -109.09885297   -0.00000005    0.00040780 0.00000000 0.00000003  0.31D-03      0.38
   4   23   10    0    -109.09885297    -109.09885297    0.00000000    0.00000002 0.00000000 0.00000000  0.12D-07      0.43

 ** WVFN ****  CONVERGENCE REACHED, FINAL GRADIENT:  0.34D-09

 Gradient information for state 1.1 saved on record      5000.1


 First order charge density matrix for state 1.1 saved on record  2140.2 (density set 1)

 Results for state 1.1
 =====================

 !MCSCF STATE 1.1 Energy             -109.098852973845
 Nuclear energy                        23.78980035
 Kinetic energy                       108.99026188
 One electron energy                 -194.65219768
 Two electron energy                   61.76354436
 Virial ratio                           2.00099634

 !MCSCF STATE 1.1 Dipole moment         0.00000000     0.00000000     0.00000000
 Dipole moment /Debye                   0.00000000     0.00000000     0.00000000


 NATURAL ORBITALS
 ================

   Orb     Occ        Energy       Coefficients

                                   1 1s      1 1s      1 1s      1 1s      1 2px     1 2py     1 2pz     1 2px     1 2py     1 2pz  
                                   1 2px     1 2py     1 2pz     1 3d0     1 3d2-    1 3d1+    1 3d2+    1 3d1-    1 3d0     1 3d2- 
                                   1 3d1+    1 3d2+    1 3d1-    2 1s      2 1s      2 1s      2 1s      2 2px     2 2py     2 2pz  
                                   2 2px     2 2py     2 2pz     2 2px     2 2py     2 2pz     2 3d0     2 3d2-    2 3d1+    2 3d2+ 
                                   2 3d1-    2 3d0     2 3d2-    2 3d1+    2 3d2+    2 3d1- 

   1.1  2.00000   -15.643237     0.707955  0.009063 -0.025398  0.043402  0.000000  0.000000  0.007730  0.000000  0.000000 -0.001860
                                 0.000000  0.000000  0.011404  0.001074  0.000000  0.000000  0.000000  0.000000  0.000541  0.000000
                                 0.000000  0.000000  0.000000 -0.707955 -0.009063  0.025398 -0.043402  0.000000  0.000000  0.007730
                                 0.000000  0.000000 -0.001860  0.000000  0.000000  0.011404 -0.001074  0.000000  0.000000  0.000000
                                 0.000000 -0.000541  0.000000  0.000000  0.000000  0.000000

   2.1  2.00000   -15.619721     0.710380  0.003295 -0.022488 -0.000381  0.000000  0.000000  0.013054  0.000000  0.000000  0.003817
                                 0.000000  0.000000  0.001710  0.000770  0.000000  0.000000  0.000000  0.000000 -0.002175  0.000000
                                 0.000000  0.000000  0.000000  0.710380  0.003295 -0.022488 -0.000381  0.000000  0.000000 -0.013054
                                 0.000000  0.000000 -0.003817  0.000000  0.000000 -0.001710  0.000770  0.000000  0.000000  0.000000
                                 0.000000 -0.002175  0.000000  0.000000  0.000000  0.000000

   3.1  1.99608    -1.119490    -0.120051  0.319689  0.339521  0.021006 -0.000000  0.000000 -0.140799 -0.000000  0.000000 -0.101696
                                -0.000000  0.000000 -0.008320  0.002376  0.000000 -0.000000  0.000000  0.000000  0.004930  0.000000
                                -0.000000  0.000000  0.000000 -0.120051  0.319689  0.339521  0.021006 -0.000000  0.000000  0.140799
                                -0.000000  0.000000  0.101696 -0.000000  0.000000  0.008320  0.002376  0.000000  0.000000  0.000000
                                 0.000000  0.004930  0.000000  0.000000  0.000000  0.000000

   4.1  1.98995    -0.769270    -0.127783  0.332608  0.489121 -0.303919  0.000000  0.000000 -0.212150  0.000000  0.000000 -0.074715
                                 0.000000  0.000000 -0.090291 -0.005105  0.000000  0.000000  0.000000  0.000000 -0.007804  0.000000
                                 0.000000  0.000000  0.000000  0.127783 -0.332608 -0.489121  0.303919  0.000000  0.000000 -0.212150
                                 0.000000  0.000000 -0.074715  0.000000  0.000000 -0.090291  0.005105  0.000000 -0.000000  0.000000
                                 0.000000  0.007804  0.000000 -0.000000  0.000000  0.000000

   5.1  1.98297    -0.990884    -0.073723  0.152135 -0.078868 -0.040255 -0.000000  0.000000  0.495392 -0.000000  0.000000  0.152740
                                -0.000000  0.000000  0.001364  0.026499  0.000000 -0.000000  0.000000  0.000000  0.006630  0.000000
                                -0.000000  0.000000  0.000000 -0.073723  0.152135 -0.078868 -0.040255 -0.000000  0.000000 -0.495392
                                -0.000000  0.000000 -0.152740 -0.000000  0.000000 -0.001364  0.026499  0.000000  0.000000  0.000000
                                 0.000000  0.006630  0.000000  0.000000  0.000000  0.000000

   6.1  1.94254    -0.595448     0.000000 -0.000000 -0.000000  0.000000  0.380842  0.235373  0.000000  0.192092  0.118720  0.000000
                                 0.006507  0.004022  0.000000  0.000000  0.000000  0.020142  0.000000  0.012449  0.000000  0.000000
                                 0.029561  0.000000  0.018269 -0.000000  0.000000  0.000000 -0.000000  0.380842  0.235373  0.000000
                                 0.192092  0.118720  0.000000  0.006507  0.004022  0.000000 -0.000000  0.000000 -0.020142  0.000000
                                -0.012449 -0.000000  0.000000 -0.029561  0.000000 -0.018269

   7.1  1.94254    -0.595448    -0.000000  0.000000  0.000000 -0.000000 -0.235373  0.380842 -0.000000 -0.118720  0.192092 -0.000000
                                -0.004022  0.006507 -0.000000 -0.000000  0.000000 -0.012449  0.000000  0.020142 -0.000000  0.000000
                                -0.018269  0.000000  0.029561  0.000000 -0.000000 -0.000000  0.000000 -0.235373  0.380842 -0.000000
                                -0.118720  0.192092 -0.000000 -0.004022  0.006507 -0.000000  0.000000  0.000000  0.012449  0.000000
                                -0.020142  0.000000  0.000000  0.018269  0.000000 -0.029561

   8.1  0.06363     0.294794    -0.000000  0.000000  0.000000 -0.000000  0.683293  0.000000 -0.000000  0.233826  0.000000 -0.000000
                                -0.036933 -0.000000 -0.000000 -0.000000  0.000000  0.003074  0.000000  0.000000 -0.000000  0.000000
                                 0.007898  0.000000  0.000000  0.000000 -0.000000 -0.000000  0.000000 -0.683293 -0.000000 -0.000000
                                -0.233826 -0.000000 -0.000000  0.036933  0.000000 -0.000000  0.000000  0.000000  0.003074  0.000000
                                 0.000000  0.000000  0.000000  0.007898  0.000000  0.000000

   9.1  0.06363     0.294794    -0.000000  0.000000  0.000000 -0.000000  0.000000 -0.683293 -0.000000  0.000000 -0.233826 -0.000000
                                -0.000000  0.036933 -0.000000 -0.000000  0.000000  0.000000  0.000000 -0.003074 -0.000000  0.000000
                                 0.000000  0.000000 -0.007898  0.000000 -0.000000 -0.000000  0.000000 -0.000000  0.683293 -0.000000
                                -0.000000  0.233826 -0.000000  0.000000 -0.036933 -0.000000  0.000000  0.000000  0.000000  0.000000
                                -0.003074  0.000000  0.000000  0.000000  0.000000 -0.007898

  10.1  0.01866     1.238014    -0.089864  0.570201  0.599919 -0.377262  0.000000  0.000000  0.910124  0.000000  0.000000  0.298144
                                 0.000000  0.000000 -0.106883  0.004566  0.000000  0.000000  0.000000  0.000000  0.004131  0.000000
                                 0.000000  0.000000  0.000000  0.089864 -0.570201 -0.599919  0.377262  0.000000  0.000000  0.910124
                                 0.000000  0.000000  0.298144  0.000000  0.000000 -0.106883 -0.004566  0.000000 -0.000000  0.000000
                                 0.000000 -0.004131  0.000000 -0.000000  0.000000  0.000000

 *** IN SYMMETRY 1 ORBITAL  6 SYMMETRY CONTAMINATION OF 0.382D+00 HAS BEEN REMOVED
 *** IN SYMMETRY 1 ORBITAL  7 SYMMETRY CONTAMINATION OF 0.382D+00 HAS BEEN REMOVED

 EXTRA SYMMETRY OF MOS IN SYMMETRY 1:   1 1 1 1 1 2 3 2 3 1   1 1 2 3 3 2 1 1 1 1   4 5 2 3 2 3 1 2 3 4   5 1 3 2 1 1 2 3 1 4
                                        5 4 5 2 3 1

 Natural orbital dump at molpro section  2140.2    (Orbital set 2)


 CI vector
 =========

 22222000      0.9642589
 22202200     -0.0890150
 22220020     -0.0890150

 TOTAL ENERGIES                      -109.09885297



 **********************************************************************************************************************************
 DATASETS  * FILE   NREC   LENGTH (MB)   RECORD NAMES
              1      20       21.40       500      610      700      900      950      970     1000      129      960     1100   
                                          VAR    BASINP    GEOM    SYMINP    ZMAT    AOBASIS   BASIS     P2S    ABASIS      S 
                                         1400     1410     1200     1210     1080     1600     1650     1700     1380     5000   
                                           T        V       H0       H01     AOSYM     SMH    MOLCAS    OPER     JKOP    MCGRAD    

              2       5        5.38       700     1000      520     2100     2140   
                                         GEOM     BASIS   MCVARS     RHF     MCSCF   

 PROGRAMS   *        TOTAL     MULTI        HF       INT
 CPU TIMES  *         0.84      0.47      0.06      0.19
 REAL TIME  *         1.10 SEC
 DISK USED  *       109.35 MB      
 SF USED    *        10.33 MB      
 GA USED    *         0.00 MB       (max)       0.00 MB       (current)
 **********************************************************************************************************************************


 PROGRAM * OPT (Geometry optimization)     Authors: F. Eckert and H.-J. Werner


 BFGS update of hessian

 *** Long output written to logfile /home/cayo/dynamics/n2.log ***


 Geometry optimization using default procedure for command MULTI

 Geometry written to block  1 of record 700

 Making model hessian for Z-matrix coordinates

 Entering Rational Function Geometry Optimization

 ITER.   ENERGY(OLD)    ENERGY(NEW)      DE          GRADMAX     GRADNORM    GRADRMS     STEPMAX     STEPLEN     STEPRMS   CPU-time
   1  -109.09885297  -109.10005759    -0.00120461  0.06301850  0.06301850  0.06301850  0.04566744  0.04566744  0.04566744      1.19
   2  -109.10005759  -109.10008067    -0.00002308  0.00816229  0.00816229  0.00816229  0.00523653  0.00523653  0.00523653      2.52
   3  -109.10008067  -109.10008080    -0.00000014  0.00062813  0.00062813  0.00062813  0.00043658  0.00043658  0.00043658      3.89
   4  -109.10008080  -109.10008081    -0.00000000  0.00000704  0.00000704  0.00000704  0.00000484  0.00000484  0.00000484      5.16

 END OF GEOMETRY OPTIMIZATION.

 Optimized variables
 R=                   2.09970539 BOHR

 **********************************************************************************************************************************

 Current geometry (xyz format, in Angstrom)

    2
 MULTI000/6-31++G(2D,2P)  ENERGY=-109.10008081
 N          0.0000000000        0.0000000000       -0.5555581223
 N          0.0000000000        0.0000000000        0.5555581223

 **********************************************************************************************************************************

 Geometry written to block  1 of record 700


 **********************************************************************************************************************************
 DATASETS  * FILE   NREC   LENGTH (MB)   RECORD NAMES
              1      20       21.40       500      610      700      900      950      970     1000      129      960     1100   
                                          VAR    BASINP    GEOM    SYMINP    ZMAT    AOBASIS   BASIS     P2S    ABASIS      S 
                                         1400     1410     1200     1210     1080     1600     1650     1700     1380     5000   
                                           T        V       H0       H01     AOSYM     SMH    MOLCAS    OPER     JKOP    MCGRAD    

              2       5        5.38       700     1000      520     2100     2140   
                                         GEOM     BASIS   MCVARS     RHF     MCSCF   

 PROGRAMS   *        TOTAL      OPTG     MULTI        HF       INT
 CPU TIMES  *         6.00      5.16      0.47      0.06      0.19
 REAL TIME  *         6.95 SEC
 DISK USED  *       124.95 MB      
 SF USED    *        10.33 MB      
 GA USED    *         0.00 MB       (max)       0.00 MB       (current)
 **********************************************************************************************************************************

 DO I                   =         1.00000000   
 SETTING CH             =        -0.30000000                                  
 SETTING R              =         1.79970623                                  
 ZSYMEL=NOSYM
 ZUNIT=BOHR

 SETTING X(1)           =         1.79970623  BOHR                            


 Recomputing integrals since geometry changed


 PROGRAM * SEWARD (Integral evaluation for generally contracted gaussian basis sets)     Author: Roland Lindh, 1990

 Geometry written to block  1 of record 700

 Orientation using atomic masses  
 Molecule type: Linear
 Rotational constants:      79.5620293     79.5620293      0.0000000 GHz  (calculated with average atomic masses)

 Point group  C1  



 ATOMIC COORDINATES

 NR  ATOM    CHARGE       X              Y              Z

   1  N1      7.00    0.000000000    0.000000000   -0.899853115
   2  N2      7.00    0.000000000    0.000000000    0.899853115

 Bond lengths in Bohr (Angstrom)

 1-2  1.799706230
     ( 0.952363523)


 BASIS DATA

   Nr Sym  Nuc  Type         Exponents   Contraction coefficients

    1.1 A     1  1s        4173.511500     0.001835
                            627.457910     0.013995
                            142.902090     0.068587
                             40.234329     0.232241
                             12.820213     0.469070
                              4.390437     0.360455
    2.1 A     1  1s          11.626362    -0.114961
                              2.716280    -0.169117
                              0.772218     1.145852
    3.1 A     1  1s           0.212032     1.000000
    4.1 A     1  1s           0.063900     1.000000
    5.1 A     1  2px         11.626362     0.067580
                              2.716280     0.323907
                              0.772218     0.740895
    6.1 A     1  2py         11.626362     0.067580
                              2.716280     0.323907
                              0.772218     0.740895
    7.1 A     1  2pz         11.626362     0.067580
                              2.716280     0.323907
                              0.772218     0.740895
    8.1 A     1  2px          0.212032     1.000000
    9.1 A     1  2py          0.212032     1.000000
   10.1 A     1  2pz          0.212032     1.000000
   11.1 A     1  2px          0.063900     1.000000
   12.1 A     1  2py          0.063900     1.000000
   13.1 A     1  2pz          0.063900     1.000000
   14.1 A     1  3d0          1.600000     1.000000
   15.1 A     1  3d2-         1.600000     1.000000
   16.1 A     1  3d1+         1.600000     1.000000
   17.1 A     1  3d2+         1.600000     1.000000
   18.1 A     1  3d1-         1.600000     1.000000
   19.1 A     1  3d0          0.400000     1.000000
   20.1 A     1  3d2-         0.400000     1.000000
   21.1 A     1  3d1+         0.400000     1.000000
   22.1 A     1  3d2+         0.400000     1.000000
   23.1 A     1  3d1-         0.400000     1.000000
   24.1 A     2  1s        4173.511500     0.001835
                            627.457910     0.013995
                            142.902090     0.068587
                             40.234329     0.232241
                             12.820213     0.469070
                              4.390437     0.360455
   25.1 A     2  1s          11.626362    -0.114961
                              2.716280    -0.169117
                              0.772218     1.145852
   26.1 A     2  1s           0.212032     1.000000
   27.1 A     2  1s           0.063900     1.000000
   28.1 A     2  2px         11.626362     0.067580
                              2.716280     0.323907
                              0.772218     0.740895
   29.1 A     2  2py         11.626362     0.067580
                              2.716280     0.323907
                              0.772218     0.740895
   30.1 A     2  2pz         11.626362     0.067580
                              2.716280     0.323907
                              0.772218     0.740895
   31.1 A     2  2px          0.212032     1.000000
   32.1 A     2  2py          0.212032     1.000000
   33.1 A     2  2pz          0.212032     1.000000
   34.1 A     2  2px          0.063900     1.000000
   35.1 A     2  2py          0.063900     1.000000
   36.1 A     2  2pz          0.063900     1.000000
   37.1 A     2  3d0          1.600000     1.000000
   38.1 A     2  3d2-         1.600000     1.000000
   39.1 A     2  3d1+         1.600000     1.000000
   40.1 A     2  3d2+         1.600000     1.000000
   41.1 A     2  3d1-         1.600000     1.000000
   42.1 A     2  3d0          0.400000     1.000000
   43.1 A     2  3d2-         0.400000     1.000000
   44.1 A     2  3d1+         0.400000     1.000000
   45.1 A     2  3d2+         0.400000     1.000000
   46.1 A     2  3d1-         0.400000     1.000000

 NUCLEAR CHARGE:                   14
 NUMBER OF PRIMITIVE AOS:          76
 NUMBER OF SYMMETRY AOS:           72
 NUMBER OF CONTRACTIONS:           46   (  46A   )
 NUMBER OF CORE ORBITALS:           2   (   2A   )
 NUMBER OF VALENCE ORBITALS:        8   (   8A   )


 NUCLEAR REPULSION ENERGY   27.22666577

 EXTRA SYMMETRY OF AOS IN SYMMETRY 1:   1 1 1 1 2 3 1 2 3 1   2 3 1 1 4 2 5 3 1 4   2 5 3 1 1 1 1 2 3 1   2 3 1 2 3 1 1 4 2 5
                                        3 1 4 2 5 3

 Eigenvalues of metric

         1 0.104E-03 0.764E-03 0.209E-01 0.209E-01 0.307E-01 0.875E-01 0.875E-01 0.979E-01


 Contracted 2-electron integrals neglected if value below      1.0D-12
 AO integral compression algorithm  1   Integral accuracy      1.0D-12

     2.097 MB (compressed) written to integral file ( 31.7%)

     Node minimum: 0.524 MB, node maximum: 0.524 MB


 NUMBER OF SORTED TWO-ELECTRON INTEGRALS:     146340.     BUFFER LENGTH:  32768
 NUMBER OF SEGMENTS:   1  SEGMENT LENGTH:     146340      RECORD LENGTH: 524288

 Memory used in sort:       0.70 MW

 SORT1 READ      893019. AND WROTE       32044. INTEGRALS IN      1 RECORDS. CPU TIME:     0.01 SEC, REAL TIME:     0.01 SEC
 SORT2 READ      129929. AND WROTE      584821. INTEGRALS IN      8 RECORDS. CPU TIME:     0.01 SEC, REAL TIME:     0.01 SEC

 Node minimum:      145800.  Node maximum:      146611. integrals

 OPERATOR DM      FOR CENTER  0  COORDINATES:    0.000000    0.000000    0.000000


 **********************************************************************************************************************************
 DATASETS  * FILE   NREC   LENGTH (MB)   RECORD NAMES
              1      18       19.95       500      610      700      900      950      970     1000      129      960     1100   
                                          VAR    BASINP    GEOM    SYMINP    ZMAT    AOBASIS   BASIS     P2S    ABASIS      S 
                                         1400     1410     1200     1210     1080     1600     1650     1700   
                                           T        V       H0       H01     AOSYM     SMH    MOLCAS    OPER   

              2       5        5.38       700     1000      520     2100     2140   
                                         GEOM     BASIS   MCVARS     RHF     MCSCF   

 PROGRAMS   *        TOTAL       INT      OPTG     MULTI        HF       INT
 CPU TIMES  *         6.11      0.11      5.16      0.47      0.06      0.19
 REAL TIME  *         7.09 SEC
 DISK USED  *       125.21 MB      
 SF USED    *        10.33 MB      
 GA USED    *         0.00 MB       (max)       0.00 MB       (current)
 **********************************************************************************************************************************


 PROGRAM * RHF-SCF (CLOSED SHELL)       Authors: W. Meyer, H.-J. Werner


 NUMBER OF ELECTRONS:       7+    7-    SPACE SYMMETRY=1    SPIN SYMMETRY: Singlet 
 CONVERGENCE THRESHOLDS:    1.00E-07 (Density)    1.00E-07 (Energy)
 MAX. NUMBER OF ITERATIONS:       60
 INTERPOLATION TYPE:            DIIS
 INTERPOLATION STEPS:              2 (START)      1 (STEP)
 LEVEL SHIFTS:                  0.00 (CLOSED)  0.00 (OPEN) 



 Molecular orbitals read from record     2100.2  Type=RHF/CANONICAL (state 1.1)

 Molecular orbital dump at record        2101.2

 ITERATION    DDIFF          GRAD             ENERGY        2-EL.EN.            DIPOLE MOMENTS         DIIS   ORB.
    1      0.000D+00      0.000D+00      -108.86527147    128.027946   -0.00000   -0.00000   -0.00000    0    start
    2      0.000D+00      0.967D-02      -108.88498385    130.177965    0.00000   -0.00000   -0.00000    1    diag
    3      0.160D-01      0.232D-02      -108.88617826    129.676101   -0.00000   -0.00000   -0.00000    2    diag
    4      0.359D-02      0.405D-03      -108.88625078    129.704980   -0.00000   -0.00000    0.00000    3    diag
    5      0.148D-02      0.594D-04      -108.88625270    129.700553    0.00000   -0.00000   -0.00000    4    diag
    6      0.597D-03      0.734D-05      -108.88625274    129.700192   -0.00000    0.00000   -0.00000    5    diag
    7      0.349D-04      0.661D-06      -108.88625274    129.700231    0.00000   -0.00000    0.00000    6    diag
    8      0.107D-04      0.551D-07      -108.88625274    129.700228    0.00000    0.00000   -0.00000    7    orth
    9      0.158D-05      0.770D-08      -108.88625274    129.700229   -0.00000    0.00000   -0.00000    8    diag
   10      0.117D-06      0.110D-08      -108.88625274    129.700229   -0.00000    0.00000   -0.00000    9    diag
   11      0.711D-08      0.725D-10      -108.88625274    129.700229   -0.00000   -0.00000   -0.00000    0    orth

 Final occupancy:   7

 !RHF STATE 1.1 Energy               -108.886252737563
 Nuclear energy                        27.22666577
 One-electron energy                 -200.96303293
 Two-electron energy                   64.85011443
 Virial quotient                       -0.99153059
 !RHF STATE 1.1 Dipole moment          -0.00000000    -0.00000000    -0.00000000
 Dipole moment /Debye                  -0.00000000    -0.00000000    -0.00000000

 ELECTRON ORBITALS
 =================


   Orb  Occ    Energy  Couls-En    Coefficients

                                   1 1s      1 1s      1 1s      1 1s      1 2px     1 2py     1 2pz     1 2px     1 2py     1 2pz  
                                   1 2px     1 2py     1 2pz     1 3d0     1 3d2-    1 3d1+    1 3d2+    1 3d1-    1 3d0     1 3d2- 
                                   1 3d1+    1 3d2+    1 3d1-    2 1s      2 1s      2 1s      2 1s      2 2px     2 2py     2 2pz  
                                   2 2px     2 2py     2 2pz     2 2px     2 2py     2 2pz     2 3d0     2 3d2-    2 3d1+    2 3d2+ 
                                   2 3d1-    2 3d0     2 3d2-    2 3d1+    2 3d2+    2 3d1- 

   1.1   2   -15.6547  -43.9702  0.703867  0.019001 -0.005296  0.000769 -0.000000  0.000000  0.002209 -0.000000  0.000000 -0.004376
                                -0.000000  0.000000  0.001982  0.001414  0.000000  0.000000  0.000000  0.000000 -0.002981  0.000000
                                -0.000000  0.000000  0.000000  0.703867  0.019001 -0.005296  0.000769  0.000000 -0.000000 -0.002209
                                 0.000000  0.000000  0.004376  0.000000 -0.000000 -0.001982  0.001414  0.000000 -0.000000 -0.000000
                                 0.000000 -0.002981  0.000000 -0.000000  0.000000  0.000000

   2.1   2   -15.6453  -43.9608  0.704959  0.018897 -0.015497  0.051504 -0.000000  0.000000  0.003517 -0.000000  0.000000 -0.004046
                                 0.000000 -0.000000  0.011554  0.001054 -0.000000 -0.000000 -0.000000  0.000000  0.000611  0.000000
                                -0.000000  0.000000  0.000000 -0.704959 -0.018897  0.015497 -0.051504 -0.000000 -0.000000  0.003517
                                 0.000000 -0.000000 -0.004046 -0.000000  0.000000  0.011554 -0.001054  0.000000  0.000000  0.000000
                                 0.000000 -0.000611 -0.000000 -0.000000 -0.000000  0.000000

   3.1   2    -1.5812  -12.3623 -0.174473  0.341007  0.168467 -0.014110 -0.000000  0.000000  0.256652  0.000000 -0.000000  0.006528
                                -0.000000  0.000000  0.001973  0.024920  0.000000 -0.000000 -0.000000  0.000000  0.000219 -0.000000
                                 0.000000  0.000000 -0.000000 -0.174473  0.341007  0.168467 -0.014110  0.000000  0.000000 -0.256652
                                -0.000000  0.000000 -0.006528  0.000000 -0.000000 -0.001973  0.024920  0.000000 -0.000000 -0.000000
                                 0.000000  0.000219  0.000000  0.000000 -0.000000 -0.000000

   4.1   2    -0.7310   -8.5197 -0.140306  0.311937  0.507719 -0.435768  0.000000 -0.000000 -0.241421  0.000000 -0.000000 -0.084823
                                 0.000000  0.000000 -0.112831 -0.003327  0.000000  0.000000 -0.000000 -0.000000 -0.006272 -0.000000
                                -0.000000 -0.000000 -0.000000  0.140306 -0.311937 -0.507719  0.435768  0.000000 -0.000000 -0.241421
                                 0.000000 -0.000000 -0.084823 -0.000000 -0.000000 -0.112831  0.003327  0.000000 -0.000000 -0.000000
                                 0.000000  0.006272 -0.000000 -0.000000  0.000000  0.000000

   5.1   2    -0.6868   -9.3038  0.000000 -0.000000 -0.000000  0.000000  0.446234  0.044472  0.000000  0.202348  0.020166 -0.000000
                                 0.005876  0.000586  0.000000  0.000000  0.000000  0.031714 -0.000000  0.003161 -0.000000 -0.000000
                                 0.035192 -0.000000  0.003507  0.000000  0.000000  0.000000 -0.000000  0.446234  0.044472 -0.000000
                                 0.202348  0.020166 -0.000000  0.005876  0.000586  0.000000  0.000000 -0.000000 -0.031714  0.000000
                                -0.003161 -0.000000  0.000000 -0.035192  0.000000 -0.003507

   6.1   2    -0.6868   -9.3038 -0.000000  0.000000 -0.000000 -0.000000 -0.044472  0.446234  0.000000 -0.020166  0.202348 -0.000000
                                -0.000586  0.005876 -0.000000  0.000000 -0.000000 -0.003161 -0.000000  0.031714 -0.000000  0.000000
                                -0.003507 -0.000000  0.035192  0.000000 -0.000000 -0.000000  0.000000 -0.044472  0.446234 -0.000000
                                -0.020166  0.202348 -0.000000 -0.000586  0.005876  0.000000  0.000000  0.000000  0.003161  0.000000
                                -0.031714 -0.000000 -0.000000  0.003507  0.000000 -0.035192

   7.1   2    -0.6456   -8.6922  0.049536 -0.094599 -0.303172 -0.047845 -0.000000 -0.000000  0.462014 -0.000000 -0.000000  0.145764
                                -0.000000 -0.000000  0.015544  0.021865  0.000000  0.000000 -0.000000  0.000000 -0.010707 -0.000000
                                -0.000000  0.000000 -0.000000  0.049536 -0.094599 -0.303172 -0.047845 -0.000000 -0.000000 -0.462014
                                -0.000000 -0.000000 -0.145764 -0.000000  0.000000 -0.015544  0.021865  0.000000 -0.000000 -0.000000
                                -0.000000 -0.010707 -0.000000  0.000000  0.000000  0.000000

 HOMO      7.1    -0.645564 =     -17.5667eV
 LUMO      8.1     0.141473 =       3.8497eV
 LUMO-HOMO         0.787037 =      21.4164eV


 **********************************************************************************************************************************
 DATASETS  * FILE   NREC   LENGTH (MB)   RECORD NAMES
              1      18       19.95       500      610      700      900      950      970     1000      129      960     1100   
                                          VAR    BASINP    GEOM    SYMINP    ZMAT    AOBASIS   BASIS     P2S    ABASIS      S 
                                         1400     1410     1200     1210     1080     1600     1650     1700   
                                           T        V       H0       H01     AOSYM     SMH    MOLCAS    OPER   

              2       6        7.92       700     1000      520     2100     2140     2101   
                                         GEOM     BASIS   MCVARS     RHF     MCSCF     RHF  

 PROGRAMS   *        TOTAL        HF       INT      OPTG     MULTI        HF       INT
 CPU TIMES  *         6.16      0.05      0.11      5.16      0.47      0.06      0.19
 REAL TIME  *         7.15 SEC
 DISK USED  *       130.19 MB      
 SF USED    *        10.33 MB      
 GA USED    *         0.00 MB       (max)       0.00 MB       (current)
 **********************************************************************************************************************************


 PROGRAM * MULTI (Direct Multiconfiguration SCF)       Authors: P.J. Knowles, H.-J. Werner (1984)     S.T. Elbert (1988)


 Number of closed-shell orbitals:   2 (   2 )
 Number of active  orbitals:        8 (   8 )
 Number of external orbitals:      36 (  36 )

 State symmetry 1

 Number of electrons:    10    Spin symmetry=Singlet   Space symmetry=1
 Number of states:        1
 Number of CSFs:       1176   (3136 determinants, 3136 intermediate states)

 Molecular orbitals read from record     2140.2  Type=MCSCF/NATURAL (state 1.1)

 EXTRA SYMMETRY OF MOS IN SYMMETRY 1:   1 1 1 1 1 2 3 3 2 1   1 1 3 2 2 3 1 1 1 4   5 1 3 2 3 2 1 3 2 4   5 1 2 3 1 1 3 2 1 4
                                        5 4 5 3 2 1

 Wavefunction dump at record             2141.2

 Convergence thresholds  0.10E-01 (gradient)  0.10E-05 (energy)  0.10E-02 (step length)

 Number of orbital rotations:      376   (    16 Core/Active     72 Core/Virtual   0 Active/Active    288 Active/Virtual)
 Total number of variables:       3512


 ITER. MIC  NCI  NEG     ENERGY(VAR)     ENERGY(PROJ)   ENERGY CHANGE     GRAD(0)  GRAD(ORB)   GRAD(CI)     STEP       TIME

   1   60   23    0    -108.97936138    -109.00435349   -0.02499211    0.33910892 0.00003430 0.00297717  0.22D+00      0.09
   2  201   20    0    -108.98773998    -106.62972322    2.35801676    0.08783084 0.22331510 0.79686687  0.77D+00      0.21
   3   38   32    0    -108.94085275    -109.00176587   -0.06091313    0.24471557 0.00000504 0.00028309  0.11D+01      0.33
   4   38   22    0    -109.00134181    -109.00141412   -0.00007232    0.00917372 0.00000054 0.00000464  0.44D-01      0.41
   5   40   10    0    -109.00141414    -109.00141414   -0.00000000    0.00000716 0.00000009 0.00000083  0.19D-04      0.45

 ** WVFN ****  CONVERGENCE REACHED, FINAL GRADIENT:  0.78D-07


 First order charge density matrix for state 1.1 saved on record  2141.2 (density set 1)

 Results for state 1.1
 =====================

 !MCSCF STATE 1.1 Energy             -109.001414140533
 Nuclear energy                        27.22666577
 Kinetic energy                       110.11688155
 One electron energy                 -201.10804200
 Two electron energy                   64.87996210
 Virial ratio                           1.98987015

 !MCSCF STATE 1.1 Dipole moment         0.00000000     0.00000000    -0.00000001
 Dipole moment /Debye                   0.00000000     0.00000000    -0.00000003


 NATURAL ORBITALS
 ================

   Orb     Occ        Energy       Coefficients

                                   1 1s      1 1s      1 1s      1 1s      1 2px     1 2py     1 2pz     1 2px     1 2py     1 2pz  
                                   1 2px     1 2py     1 2pz     1 3d0     1 3d2-    1 3d1+    1 3d2+    1 3d1-    1 3d0     1 3d2- 
                                   1 3d1+    1 3d2+    1 3d1-    2 1s      2 1s      2 1s      2 1s      2 2px     2 2py     2 2pz  
                                   2 2px     2 2py     2 2pz     2 2px     2 2py     2 2pz     2 3d0     2 3d2-    2 3d1+    2 3d2+ 
                                   2 3d1-    2 3d0     2 3d2-    2 3d1+    2 3d2+    2 3d1- 

   1.1  2.00000   -15.602704     0.708740  0.010096 -0.030830  0.064691  0.000000  0.000000  0.010606  0.000000  0.000000 -0.001710
                                 0.000000  0.000000  0.014966  0.001197  0.000000  0.000000  0.000000  0.000000  0.000839  0.000000
                                 0.000000  0.000000  0.000000 -0.708740 -0.010096  0.030830 -0.064691  0.000000  0.000000  0.010606
                                 0.000000  0.000000 -0.001710  0.000000  0.000000  0.014966 -0.001197  0.000000  0.000000  0.000000
                                 0.000000 -0.000839  0.000000  0.000000  0.000000  0.000000

   2.1  2.00000   -15.570808     0.710006  0.004817 -0.026374 -0.001466  0.000000  0.000000  0.019929  0.000000  0.000000  0.003308
                                 0.000000  0.000000  0.002802  0.001889  0.000000  0.000000  0.000000  0.000000 -0.003555  0.000000
                                 0.000000  0.000000  0.000000  0.710007  0.004817 -0.026374 -0.001466  0.000000  0.000000 -0.019929
                                 0.000000  0.000000 -0.003308  0.000000  0.000000 -0.002802  0.001889  0.000000  0.000000  0.000000
                                 0.000000 -0.003555  0.000000  0.000000  0.000000  0.000000

   3.1  1.99697    -1.125841    -0.114970  0.303296  0.335852  0.025666  0.000000  0.000000 -0.155931  0.000000  0.000000 -0.103003
                                 0.000000  0.000000 -0.009786  0.001080  0.000000  0.000000  0.000000  0.000000  0.006751  0.000000
                                 0.000000  0.000000  0.000000 -0.114970  0.303296  0.335852  0.025666  0.000000  0.000000  0.155931
                                 0.000000  0.000000  0.103004  0.000000  0.000000  0.009786  0.001080  0.000000  0.000000  0.000000
                                 0.000000  0.006751  0.000000  0.000000  0.000000  0.000000

   4.1  1.99184    -0.730588    -0.120088  0.312561  0.514777 -0.424757  0.000000  0.000000 -0.236513  0.000000  0.000000 -0.082681
                                 0.000000  0.000000 -0.110718 -0.004172  0.000000  0.000000  0.000000  0.000000 -0.007816  0.000000
                                 0.000000  0.000000  0.000000  0.120087 -0.312559 -0.514777  0.424756  0.000000  0.000000 -0.236518
                                 0.000000  0.000000 -0.082682  0.000000  0.000000 -0.110718  0.004172  0.000000  0.000000  0.000000
                                 0.000000  0.007816  0.000000  0.000000  0.000000  0.000000

   5.1  1.99011    -1.122628    -0.104305  0.183982 -0.086992 -0.044220  0.000000  0.000000  0.504461  0.000000  0.000000  0.103221
                                 0.000000  0.000000  0.012759  0.031824  0.000000  0.000000  0.000000  0.000000 -0.008329  0.000000
                                 0.000000  0.000000  0.000000 -0.104307  0.183985 -0.086987 -0.044224  0.000000  0.000000 -0.504459
                                 0.000000  0.000000 -0.103220  0.000000  0.000000 -0.012758  0.031824  0.000000  0.000000  0.000000
                                 0.000000 -0.008329  0.000000  0.000000  0.000000  0.000000

   6.1  1.96221    -0.670063     0.000000  0.000000  0.000000  0.000000  0.000000  0.458407  0.000000  0.000000  0.196709  0.000000
                                 0.000000  0.004130  0.000000  0.000000  0.000000  0.000000  0.000000  0.030332  0.000000  0.000000
                                 0.000000  0.000000  0.031483  0.000000  0.000000  0.000000  0.000000  0.000000  0.458407  0.000000
                                 0.000000  0.196709  0.000000  0.000000  0.004130  0.000000  0.000000  0.000000  0.000000  0.000000
                                -0.030332  0.000000  0.000000  0.000000  0.000000 -0.031483

   7.1  1.96221    -0.670063     0.000000  0.000000  0.000000  0.000000  0.458407  0.000000  0.000000  0.196709  0.000000  0.000000
                                 0.004130  0.000000  0.000000  0.000000  0.000000  0.030332  0.000000  0.000000  0.000000  0.000000
                                 0.031483  0.000000  0.000000  0.000000  0.000000  0.000000  0.000000  0.458407  0.000000  0.000000
                                 0.196709  0.000000  0.000000  0.004130  0.000000  0.000000  0.000000  0.000000 -0.030332  0.000000
                                 0.000000  0.000000  0.000000 -0.031483  0.000000  0.000000

   8.1  0.04284     0.433564     0.000000  0.000000  0.000000  0.000000  0.000000 -0.732855  0.000000  0.000000 -0.210548  0.000000
                                 0.000000  0.034438  0.000000  0.000000  0.000000  0.000000  0.000000 -0.004067  0.000000  0.000000
                                 0.000000  0.000000 -0.005154  0.000000  0.000000  0.000000  0.000000  0.000000  0.732855  0.000000
                                 0.000000  0.210548  0.000000  0.000000 -0.034438  0.000000  0.000000  0.000000  0.000000  0.000000
                                -0.004067  0.000000  0.000000  0.000000  0.000000 -0.005154

   9.1  0.04284     0.433564     0.000000  0.000000  0.000000  0.000000  0.732855  0.000000  0.000000  0.210548  0.000000  0.000000
                                -0.034438  0.000000  0.000000  0.000000  0.000000  0.004067  0.000000  0.000000  0.000000  0.000000
                                 0.005154  0.000000  0.000000  0.000000  0.000000  0.000000  0.000000 -0.732855  0.000000  0.000000
                                -0.210548  0.000000  0.000000  0.034438  0.000000  0.000000  0.000000  0.000000  0.004067  0.000000
                                 0.000000  0.000000  0.000000  0.005154  0.000000  0.000000

  10.1  0.01098     1.777040    -0.066893  0.827700  0.656770 -0.411495  0.000000  0.000000  1.070439  0.000000  0.000000  0.266590
                                 0.000000  0.000000 -0.100358 -0.004796  0.000000  0.000000  0.000000  0.000000  0.000864  0.000000
                                 0.000000  0.000000  0.000000  0.066893 -0.827702 -0.656768  0.411495  0.000000  0.000000  1.070439
                                 0.000000  0.000000  0.266590  0.000000  0.000000 -0.100358  0.004795  0.000000  0.000000  0.000000
                                 0.000000 -0.000864  0.000000  0.000000  0.000000  0.000000


 EXTRA SYMMETRY OF MOS IN SYMMETRY 1:   1 1 1 1 1 3 2 3 2 1   1 1 3 2 2 3 1 1 1 1   4 5 3 2 2 3 1 4 5 3   2 1 2 3 1 1 2 3 4 5
                                        1 4 5 3 2 1

 Natural orbital dump at molpro section  2141.2    (Orbital set 2)


 CI vector
 =========

 22222000      0.9761324
 22220020     -0.0957424
 22202200     -0.0957424
 222abba0      0.0655024
 222baab0      0.0655024

 TOTAL ENERGIES                      -109.00141414



 **********************************************************************************************************************************
 DATASETS  * FILE   NREC   LENGTH (MB)   RECORD NAMES
              1      19       21.39       500      610      700      900      950      970     1000      129      960     1100   
                                          VAR    BASINP    GEOM    SYMINP    ZMAT    AOBASIS   BASIS     P2S    ABASIS      S 
                                         1400     1410     1200     1210     1080     1600     1650     1700     1380   
                                           T        V       H0       H01     AOSYM     SMH    MOLCAS    OPER     JKOP   

              2       7       10.50       700     1000      520     2100     2140     2101     2141   
                                         GEOM     BASIS   MCVARS     RHF     MCSCF     RHF     MCSCF   

 PROGRAMS   *        TOTAL     MULTI        HF       INT      OPTG     MULTI        HF       INT
 CPU TIMES  *         6.65      0.49      0.05      0.11      5.16      0.47      0.06      0.19
 REAL TIME  *         7.76 SEC
 DISK USED  *       130.19 MB      
 SF USED    *        10.33 MB      
 GA USED    *         0.00 MB       (max)       0.00 MB       (current)
 **********************************************************************************************************************************
 SETTING E(1)           =      -109.00141414  HARTREE                         

 DO I                   =         2.00000000   
 SETTING CH             =        -0.29000000                                  
 SETTING R              =         1.80970623                                  
 ZSYMEL=NOSYM
 ZUNIT=BOHR

 SETTING X(2)           =         1.80970623  BOHR                            


 Recomputing integrals since geometry changed


 PROGRAM * SEWARD (Integral evaluation for generally contracted gaussian basis sets)     Author: Roland Lindh, 1990

 Geometry written to block  1 of record 700


 Point group  C1  



 ATOMIC COORDINATES

 NR  ATOM    CHARGE       X              Y              Z

   1  N1      7.00    0.000000000    0.000000000    0.000000000
   2  N2      7.00    0.000000000    0.000000000    1.809706230

 Bond lengths in Bohr (Angstrom)

 1-2  1.809706230
     ( 0.957655295)


 BASIS DATA

   Nr Sym  Nuc  Type         Exponents   Contraction coefficients

    1.1 A     1  1s        4173.511500     0.001835
                            627.457910     0.013995
                            142.902090     0.068587
                             40.234329     0.232241
                             12.820213     0.469070
                              4.390437     0.360455
    2.1 A     1  1s          11.626362    -0.114961
                              2.716280    -0.169117
                              0.772218     1.145852
    3.1 A     1  1s           0.212032     1.000000
    4.1 A     1  1s           0.063900     1.000000
    5.1 A     1  2px         11.626362     0.067580
                              2.716280     0.323907
                              0.772218     0.740895
    6.1 A     1  2py         11.626362     0.067580
                              2.716280     0.323907
                              0.772218     0.740895
    7.1 A     1  2pz         11.626362     0.067580
                              2.716280     0.323907
                              0.772218     0.740895
    8.1 A     1  2px          0.212032     1.000000
    9.1 A     1  2py          0.212032     1.000000
   10.1 A     1  2pz          0.212032     1.000000
   11.1 A     1  2px          0.063900     1.000000
   12.1 A     1  2py          0.063900     1.000000
   13.1 A     1  2pz          0.063900     1.000000
   14.1 A     1  3d0          1.600000     1.000000
   15.1 A     1  3d2-         1.600000     1.000000
   16.1 A     1  3d1+         1.600000     1.000000
   17.1 A     1  3d2+         1.600000     1.000000
   18.1 A     1  3d1-         1.600000     1.000000
   19.1 A     1  3d0          0.400000     1.000000
   20.1 A     1  3d2-         0.400000     1.000000
   21.1 A     1  3d1+         0.400000     1.000000
   22.1 A     1  3d2+         0.400000     1.000000
   23.1 A     1  3d1-         0.400000     1.000000
   24.1 A     2  1s        4173.511500     0.001835
                            627.457910     0.013995
                            142.902090     0.068587
                             40.234329     0.232241
                             12.820213     0.469070
                              4.390437     0.360455
   25.1 A     2  1s          11.626362    -0.114961
                              2.716280    -0.169117
                              0.772218     1.145852
   26.1 A     2  1s           0.212032     1.000000
   27.1 A     2  1s           0.063900     1.000000
   28.1 A     2  2px         11.626362     0.067580
                              2.716280     0.323907
                              0.772218     0.740895
   29.1 A     2  2py         11.626362     0.067580
                              2.716280     0.323907
                              0.772218     0.740895
   30.1 A     2  2pz         11.626362     0.067580
                              2.716280     0.323907
                              0.772218     0.740895
   31.1 A     2  2px          0.212032     1.000000
   32.1 A     2  2py          0.212032     1.000000
   33.1 A     2  2pz          0.212032     1.000000
   34.1 A     2  2px          0.063900     1.000000
   35.1 A     2  2py          0.063900     1.000000
   36.1 A     2  2pz          0.063900     1.000000
   37.1 A     2  3d0          1.600000     1.000000
   38.1 A     2  3d2-         1.600000     1.000000
   39.1 A     2  3d1+         1.600000     1.000000
   40.1 A     2  3d2+         1.600000     1.000000
   41.1 A     2  3d1-         1.600000     1.000000
   42.1 A     2  3d0          0.400000     1.000000
   43.1 A     2  3d2-         0.400000     1.000000
   44.1 A     2  3d1+         0.400000     1.000000
   45.1 A     2  3d2+         0.400000     1.000000
   46.1 A     2  3d1-         0.400000     1.000000

 NUCLEAR CHARGE:                   14
 NUMBER OF PRIMITIVE AOS:          76
 NUMBER OF SYMMETRY AOS:           72
 NUMBER OF CONTRACTIONS:           46   (  46A   )
 NUMBER OF CORE ORBITALS:           2   (   2A   )
 NUMBER OF VALENCE ORBITALS:        8   (   8A   )


 NUCLEAR REPULSION ENERGY   27.07621778

 EXTRA SYMMETRY OF AOS IN SYMMETRY 1:   1 1 1 1 2 3 1 2 3 1   2 3 1 1 4 2 5 3 1 4   2 5 3 1 1 1 1 2 3 1   2 3 1 2 3 1 1 4 2 5
                                        3 1 4 2 5 3

 Eigenvalues of metric

         1 0.107E-03 0.783E-03 0.212E-01 0.212E-01 0.313E-01 0.882E-01 0.882E-01 0.101E+00


 Contracted 2-electron integrals neglected if value below      1.0D-11
 AO integral compression algorithm  1   Integral accuracy      1.0D-11

     1.835 MB (compressed) written to integral file ( 23.8%)

     Node minimum: 0.262 MB, node maximum: 0.524 MB


 NUMBER OF SORTED TWO-ELECTRON INTEGRALS:     146340.     BUFFER LENGTH:  32768
 NUMBER OF SEGMENTS:   1  SEGMENT LENGTH:     146340      RECORD LENGTH: 524288

 Memory used in sort:       0.70 MW

 SORT1 READ      893019. AND WROTE       32044. INTEGRALS IN      1 RECORDS. CPU TIME:     0.01 SEC, REAL TIME:     0.01 SEC
 SORT2 READ      129929. AND WROTE      584821. INTEGRALS IN      8 RECORDS. CPU TIME:     0.01 SEC, REAL TIME:     0.01 SEC

 Node minimum:      145800.  Node maximum:      146611. integrals

 OPERATOR DM      FOR CENTER  0  COORDINATES:    0.000000    0.000000    0.000000


 **********************************************************************************************************************************
 DATASETS  * FILE   NREC   LENGTH (MB)   RECORD NAMES
              1      18       19.95       500      610      700      900      950      970     1000      129      960     1100   
                                          VAR    BASINP    GEOM    SYMINP    ZMAT    AOBASIS   BASIS     P2S    ABASIS      S 
                                         1400     1410     1200     1210     1080     1600     1650     1700   
                                           T        V       H0       H01     AOSYM     SMH    MOLCAS    OPER   

              2       7       10.50       700     1000      520     2100     2140     2101     2141   
                                         GEOM     BASIS   MCVARS     RHF     MCSCF     RHF     MCSCF   

 PROGRAMS   *        TOTAL       INT     MULTI        HF       INT      OPTG     MULTI        HF       INT
 CPU TIMES  *         6.76      0.11      0.49      0.05      0.11      5.16      0.47      0.06      0.19
 REAL TIME  *         7.90 SEC
 DISK USED  *       145.67 MB      
 SF USED    *        10.33 MB      
 GA USED    *         0.00 MB       (max)       0.00 MB       (current)
 **********************************************************************************************************************************


 PROGRAM * RHF-SCF (CLOSED SHELL)       Authors: W. Meyer, H.-J. Werner


 NUMBER OF ELECTRONS:       7+    7-    SPACE SYMMETRY=1    SPIN SYMMETRY: Singlet 
 CONVERGENCE THRESHOLDS:    1.00E-07 (Density)    1.00E-07 (Energy)
 MAX. NUMBER OF ITERATIONS:       60
 INTERPOLATION TYPE:            DIIS
 INTERPOLATION STEPS:              2 (START)      1 (STEP)
 LEVEL SHIFTS:                  0.00 (CLOSED)  0.00 (OPEN) 



 Molecular orbitals read from record     2101.2  Type=RHF/CANONICAL (state 1.1)

 Molecular orbital dump at record        2101.2

 ITERATION    DDIFF          GRAD             ENERGY        2-EL.EN.            DIPOLE MOMENTS         DIIS   ORB.
    1      0.000D+00      0.000D+00      -108.89287555    129.504460   -0.00000   -0.00000   -0.00000    0    start
    2      0.000D+00      0.416D-03      -108.89291129    129.410758   -0.00000   -0.00000   -0.00000    1    diag
    3      0.839D-03      0.967D-04      -108.89291335    129.432102   -0.00000    0.00000   -0.00000    2    diag
    4      0.162D-03      0.161D-04      -108.89291346    129.430822   -0.00000   -0.00000   -0.00000    3    diag
    5      0.536D-04      0.251D-05      -108.89291347    129.431037   -0.00000   -0.00000    0.00000    4    diag
    6      0.248D-04      0.316D-06      -108.89291347    129.431049   -0.00000   -0.00000   -0.00000    5    diag
    7      0.194D-05      0.263D-07      -108.89291347    129.431048   -0.00000   -0.00000   -0.00000    6    diag
    8      0.488D-06      0.215D-08      -108.89291347    129.431048   -0.00000   -0.00000   -0.00000    7    orth
    9      0.566D-07      0.268D-09      -108.89291347    129.431048    0.00000   -0.00000    0.00000    0    orth

 Final occupancy:   7

 !RHF STATE 1.1 Energy               -108.892913467475
 Nuclear energy                        27.07621778
 One-electron energy                 -200.68465515
 Two-electron energy                   64.71552390
 Virial quotient                       -0.99213832
 !RHF STATE 1.1 Dipole moment           0.00000000    -0.00000000     0.00000000
 Dipole moment /Debye                   0.00000000    -0.00000000     0.00000000

 ELECTRON ORBITALS
 =================


   Orb  Occ    Energy  Couls-En    Coefficients

                                   1 1s      1 1s      1 1s      1 1s      1 2px     1 2py     1 2pz     1 2px     1 2py     1 2pz  
                                   1 2px     1 2py     1 2pz     1 3d0     1 3d2-    1 3d1+    1 3d2+    1 3d1-    1 3d0     1 3d2- 
                                   1 3d1+    1 3d2+    1 3d1-    2 1s      2 1s      2 1s      2 1s      2 2px     2 2py     2 2pz  
                                   2 2px     2 2py     2 2pz     2 2px     2 2py     2 2pz     2 3d0     2 3d2-    2 3d1+    2 3d2+ 
                                   2 3d1-    2 3d0     2 3d2-    2 3d1+    2 3d2+    2 3d1- 

   1.1   2   -15.6562  -43.9502  0.703897  0.018931 -0.005290  0.000779 -0.000000 -0.000000  0.002183  0.000000  0.000000 -0.004284
                                -0.000000  0.000000  0.001945  0.001375 -0.000000 -0.000000  0.000000 -0.000000 -0.002941  0.000000
                                 0.000000  0.000000 -0.000000  0.703897  0.018931 -0.005290  0.000779 -0.000000  0.000000 -0.002183
                                 0.000000 -0.000000  0.004284 -0.000000  0.000000 -0.001945  0.001375  0.000000 -0.000000 -0.000000
                                 0.000000 -0.002941 -0.000000 -0.000000 -0.000000 -0.000000

   2.1   2   -15.6472  -43.9413  0.704936  0.018808 -0.015349  0.050682 -0.000000 -0.000000  0.003468 -0.000000  0.000000 -0.004015
                                -0.000000 -0.000000  0.011430  0.001052  0.000000 -0.000000  0.000000 -0.000000  0.000603 -0.000000
                                -0.000000  0.000000  0.000000 -0.704936 -0.018808  0.015349 -0.050682  0.000000 -0.000000  0.003468
                                 0.000000 -0.000000 -0.004015  0.000000  0.000000  0.011430 -0.001052 -0.000000 -0.000000  0.000000
                                -0.000000 -0.000603  0.000000 -0.000000  0.000000  0.000000

   3.1   2    -1.5776  -12.3271 -0.173690  0.341053  0.169455 -0.013983 -0.000000 -0.000000  0.255510  0.000000  0.000000  0.007484
                                 0.000000  0.000000  0.001626  0.024711  0.000000 -0.000000 -0.000000  0.000000  0.000515 -0.000000
                                -0.000000  0.000000 -0.000000 -0.173690  0.341053  0.169455 -0.013983  0.000000  0.000000 -0.255510
                                 0.000000 -0.000000 -0.007484  0.000000 -0.000000 -0.001626  0.024711 -0.000000  0.000000 -0.000000
                                -0.000000  0.000515  0.000000 -0.000000 -0.000000  0.000000

   4.1   2    -0.7329   -8.5158 -0.140463  0.312781  0.505615 -0.429718  0.000000  0.000000 -0.240668  0.000000  0.000000 -0.084938
                                 0.000000  0.000000 -0.111842 -0.003361 -0.000000  0.000000 -0.000000  0.000000 -0.006337  0.000000
                                 0.000000  0.000000 -0.000000  0.140463 -0.312781 -0.505615  0.429718  0.000000 -0.000000 -0.240668
                                 0.000000  0.000000 -0.084938 -0.000000 -0.000000 -0.111842  0.003361  0.000000 -0.000000 -0.000000
                                -0.000000  0.006337 -0.000000 -0.000000  0.000000 -0.000000

   5.1   2    -0.6838   -9.2765  0.000000  0.000000 -0.000000  0.000000 -0.023400  0.447201  0.000000 -0.010695  0.204401 -0.000000
                                -0.000317  0.006053  0.000000  0.000000 -0.000000 -0.001652 -0.000000  0.031563 -0.000000  0.000000
                                -0.001860  0.000000  0.035545  0.000000 -0.000000  0.000000 -0.000000 -0.023400  0.447201 -0.000000
                                -0.010695  0.204401 -0.000000 -0.000317  0.006053  0.000000 -0.000000  0.000000  0.001652  0.000000
                                -0.031563 -0.000000 -0.000000  0.001860 -0.000000 -0.035545

   6.1   2    -0.6838   -9.2765  0.000000 -0.000000 -0.000000  0.000000  0.447201  0.023400  0.000000  0.204401  0.010695 -0.000000
                                 0.006053  0.000317  0.000000 -0.000000 -0.000000  0.031563 -0.000000  0.001652 -0.000000  0.000000
                                 0.035545  0.000000  0.001860 -0.000000  0.000000  0.000000 -0.000000  0.447201  0.023400  0.000000
                                 0.204401  0.010695 -0.000000  0.006053  0.000317  0.000000  0.000000 -0.000000 -0.031563 -0.000000
                                -0.001652 -0.000000 -0.000000 -0.035545 -0.000000 -0.001860

   7.1   2    -0.6453   -8.6817  0.049848 -0.094835 -0.302702 -0.047625 -0.000000 -0.000000  0.462049 -0.000000  0.000000  0.147148
                                -0.000000 -0.000000  0.015076  0.021720 -0.000000  0.000000 -0.000000 -0.000000 -0.010351  0.000000
                                -0.000000  0.000000  0.000000  0.049848 -0.094835 -0.302702 -0.047625 -0.000000 -0.000000 -0.462049
                                 0.000000 -0.000000 -0.147148  0.000000  0.000000 -0.015076  0.021720  0.000000  0.000000 -0.000000
                                -0.000000 -0.010351 -0.000000 -0.000000  0.000000  0.000000

 HOMO      7.1    -0.645273 =     -17.5588eV
 LUMO      8.1     0.141397 =       3.8476eV
 LUMO-HOMO         0.786670 =      21.4064eV


 **********************************************************************************************************************************
 DATASETS  * FILE   NREC   LENGTH (MB)   RECORD NAMES
              1      18       19.95       500      610      700      900      950      970     1000      129      960     1100   
                                          VAR    BASINP    GEOM    SYMINP    ZMAT    AOBASIS   BASIS     P2S    ABASIS      S 
                                         1400     1410     1200     1210     1080     1600     1650     1700   
                                           T        V       H0       H01     AOSYM     SMH    MOLCAS    OPER   

              2       7       10.50       700     1000      520     2100     2140     2101     2141   
                                         GEOM     BASIS   MCVARS     RHF     MCSCF     RHF     MCSCF   

 PROGRAMS   *        TOTAL        HF       INT     MULTI        HF       INT      OPTG     MULTI        HF       INT
 CPU TIMES  *         6.79      0.03      0.11      0.49      0.05      0.11      5.16      0.47      0.06      0.19
 REAL TIME  *         7.94 SEC
 DISK USED  *       145.67 MB      
 SF USED    *        10.33 MB      
 GA USED    *         0.00 MB       (max)       0.00 MB       (current)
 **********************************************************************************************************************************


 PROGRAM * MULTI (Direct Multiconfiguration SCF)       Authors: P.J. Knowles, H.-J. Werner (1984)     S.T. Elbert (1988)


 Number of closed-shell orbitals:   2 (   2 )
 Number of active  orbitals:        8 (   8 )
 Number of external orbitals:      36 (  36 )

 State symmetry 1

 Number of electrons:    10    Spin symmetry=Singlet   Space symmetry=1
 Number of states:        1
 Number of CSFs:       1176   (3136 determinants, 3136 intermediate states)

 Molecular orbitals read from record     2141.2  Type=MCSCF/NATURAL (state 1.1)

 EXTRA SYMMETRY OF MOS IN SYMMETRY 1:   1 1 1 1 1 3 2 3 2 1   1 1 3 2 2 3 1 1 1 1   4 5 3 2 2 3 1 4 5 3   2 1 2 3 1 1 2 3 4 5
                                        1 4 5 3 2 1

 Wavefunction dump at record             2141.2

 Convergence thresholds  0.10E-01 (gradient)  0.10E-05 (energy)  0.10E-02 (step length)

 Number of orbital rotations:      376   (    16 Core/Active     72 Core/Virtual   0 Active/Active    288 Active/Virtual)
 Total number of variables:       3512


 ITER. MIC  NCI  NEG     ENERGY(VAR)     ENERGY(PROJ)   ENERGY CHANGE     GRAD(0)  GRAD(ORB)   GRAD(CI)     STEP       TIME

   1   20   21    0    -109.00914795    -109.00918035   -0.00003240    0.01309590 0.00000013 0.00000102  0.39D-02      0.07
[...]
                                 0.000000  0.000000  0.000833  0.000267 -0.000000  0.000000 -0.000000  0.000000 -0.001174 -0.000000
                                 0.000000 -0.000000 -0.000000  0.704415  0.015792 -0.004794  0.001106 -0.000000  0.000000 -0.001495
                                 0.000000 -0.000000  0.001345 -0.000000  0.000000 -0.000831  0.000267  0.000000  0.000000 -0.000000
                                -0.000000 -0.001174  0.000000  0.000000 -0.000000 -0.000000

   2.1   2   -15.7522  -43.0970  0.704446  0.015657 -0.011564  0.023423  0.000000  0.000000  0.001347 -0.000000 -0.000000 -0.003726
                                -0.000000  0.000000  0.006951  0.000623 -0.000000  0.000000 -0.000000 -0.000000 -0.000045 -0.000000
                                -0.000000 -0.000000  0.000000 -0.704682 -0.015662  0.011566 -0.023423  0.000000 -0.000000  0.001348
                                 0.000000  0.000000 -0.003727  0.000000 -0.000000  0.006951 -0.000623 -0.000000 -0.000000  0.000000
                                 0.000000  0.000046 -0.000000  0.000000  0.000000  0.000000

   3.1   2    -1.3608  -10.4826 -0.153159  0.334633  0.245367 -0.008828  0.000000  0.000000  0.177005  0.000000  0.000000  0.046467
                                 0.000000  0.000000 -0.009998  0.016607 -0.000000  0.000000 -0.000000  0.000000  0.019965 -0.000000
                                -0.000000 -0.000000  0.000000 -0.153159  0.334632  0.245366 -0.008828 -0.000000 -0.000000 -0.177005
                                -0.000000 -0.000000 -0.046467 -0.000000 -0.000000  0.009998  0.016607  0.000000  0.000000 -0.000000
                                -0.000000  0.019965  0.000000 -0.000000 -0.000000 -0.000000

   4.1   2    -0.8343   -8.3450 -0.151097  0.355440  0.481250 -0.223792  0.000000 -0.000000 -0.183721  0.000000 -0.000000 -0.050025
                                 0.000000 -0.000000 -0.076256 -0.005179  0.000000 -0.000000 -0.000000 -0.000000 -0.001015 -0.000000
                                 0.000000  0.000000 -0.000000  0.151097 -0.355440 -0.481249  0.223792  0.000000 -0.000000 -0.183720
                                -0.000000 -0.000000 -0.050024  0.000000  0.000000 -0.076256  0.005179 -0.000000 -0.000000  0.000000
                                 0.000000  0.001015 -0.000000 -0.000000 -0.000000  0.000000

   5.1   2    -0.6188   -8.1822  0.051276 -0.116323 -0.245673 -0.035740 -0.000000  0.000000  0.462872 -0.000000  0.000000  0.219392
                                 0.000000 -0.000000  0.001380  0.016145 -0.000000 -0.000000 -0.000000  0.000000  0.017982  0.000000
                                -0.000000  0.000000  0.000000  0.051276 -0.116323 -0.245674 -0.035739 -0.000000  0.000000 -0.462873
                                -0.000000  0.000000 -0.219392  0.000000  0.000000 -0.001381  0.016145  0.000000  0.000000 -0.000000
                                -0.000000  0.017982  0.000000  0.000000 -0.000000 -0.000000

   6.1   2    -0.5526   -8.0386  0.000000 -0.000000 -0.000000 -0.000000 -0.045312 -0.420493  0.000000 -0.028203 -0.261725 -0.000000
                                -0.002128 -0.019745  0.000000  0.000000  0.000000 -0.001827 -0.000000 -0.016957 -0.000000  0.000000
                                -0.004275  0.000000 -0.039667 -0.000000  0.000000  0.000000  0.000000 -0.045312 -0.420494 -0.000000
                                -0.028203 -0.261726 -0.000000 -0.002128 -0.019745 -0.000000  0.000000  0.000000  0.001827 -0.000000
                                 0.016957 -0.000000 -0.000000  0.004275 -0.000000  0.039667

   7.1   2    -0.5526   -8.0386  0.000000 -0.000000  0.000000  0.000000  0.420493 -0.045312  0.000000  0.261725 -0.028203  0.000000
                                 0.019745 -0.002128  0.000000  0.000000  0.000000  0.016957  0.000000 -0.001827  0.000000  0.000000
                                 0.039667 -0.000000 -0.004275 -0.000000  0.000000 -0.000000 -0.000000  0.420494 -0.045312 -0.000000
                                 0.261726 -0.028203  0.000000  0.019745 -0.002128  0.000000  0.000000 -0.000000 -0.016957 -0.000000
                                 0.001827 -0.000000  0.000000 -0.039667  0.000000  0.004275

 HOMO      7.1    -0.552627 =     -15.0377eV
 LUMO      8.1     0.069070 =       1.8795eV
 LUMO-HOMO         0.621696 =      16.9172eV


 **********************************************************************************************************************************
 DATASETS  * FILE   NREC   LENGTH (MB)   RECORD NAMES
              1      18       19.95       500      610      700      900      950      970     1000      129      960     1100   
                                          VAR    BASINP    GEOM    SYMINP    ZMAT    AOBASIS   BASIS     P2S    ABASIS      S 
                                         1400     1410     1200     1210     1080     1600     1650     1700   
                                           T        V       H0       H01     AOSYM     SMH    MOLCAS    OPER   

              2       7       10.50       700     1000      520     2100     2140     2101     2141   
                                         GEOM     BASIS   MCVARS     RHF     MCSCF     RHF     MCSCF   

 PROGRAMS   *        TOTAL        HF       INT     MULTI        HF       INT     MULTI        HF       INT     MULTI        HF
 CPU TIMES  *        25.33      0.04      0.11      0.19      0.03      0.11      0.17      0.02      0.11      0.16      0.03
 REAL TIME  *        31.28 SEC
 DISK USED  *       145.67 MB      
 SF USED    *        10.33 MB      
 GA USED    *         0.00 MB       (max)       0.00 MB       (current)
 **********************************************************************************************************************************


 PROGRAM * MULTI (Direct Multiconfiguration SCF)       Authors: P.J. Knowles, H.-J. Werner (1984)     S.T. Elbert (1988)


 Number of closed-shell orbitals:   2 (   2 )
 Number of active  orbitals:        8 (   8 )
 Number of external orbitals:      36 (  36 )

 State symmetry 1

 Number of electrons:    10    Spin symmetry=Singlet   Space symmetry=1
 Number of states:        1
 Number of CSFs:       1176   (3136 determinants, 3136 intermediate states)

 Molecular orbitals read from record     2141.2  Type=MCSCF/NATURAL (state 1.1)

 EXTRA SYMMETRY OF MOS IN SYMMETRY 1:   1 1 1 1 1 2 3 2 3 1   1 1 3 2 3 2 1 1 1 4   5 1 2 3 3 2 1 2 3 4   5 1 2 3 1 1 1 2 3 4
                                        5 4 5 2 3 1

 Wavefunction dump at record             2141.2

 Convergence thresholds  0.10E-01 (gradient)  0.10E-05 (energy)  0.10E-02 (step length)

 Number of orbital rotations:      376   (    16 Core/Active     72 Core/Virtual   0 Active/Active    288 Active/Virtual)
 Total number of variables:       3512


 ITER. MIC  NCI  NEG     ENERGY(VAR)     ENERGY(PROJ)   ENERGY CHANGE     GRAD(0)  GRAD(ORB)   GRAD(CI)     STEP       TIME

   1   18   23    0    -109.05512908    -109.05514204   -0.00001296    0.00786508 0.00000028 0.00000182  0.24D-02      0.08
   2   19    9    0    -109.05514204    -109.05514204   -0.00000000    0.00000450 0.00000001 0.00000010  0.20D-05      0.12

 ** WVFN ****  CONVERGENCE REACHED, FINAL GRADIENT:  0.12D-07


 First order charge density matrix for state 1.1 saved on record  2141.2 (density set 1)

 Results for state 1.1
 =====================

 !MCSCF STATE 1.1 Energy             -109.055142040378
 Nuclear energy                        20.41916606
 Kinetic energy                       108.26573776
 One electron energy                 -188.06572219
 Two electron energy                   58.59141409
 Virial ratio                           2.00729136

 !MCSCF STATE 1.1 Dipole moment         0.00000000     0.00000000    -0.00000000
 Dipole moment /Debye                   0.00000000     0.00000000    -0.00000000


 NATURAL ORBITALS
 ================

   Orb     Occ        Energy       Coefficients

                                   1 1s      1 1s      1 1s      1 1s      1 2px     1 2py     1 2pz     1 2px     1 2py     1 2pz  
                                   1 2px     1 2py     1 2pz     1 3d0     1 3d2-    1 3d1+    1 3d2+    1 3d1-    1 3d0     1 3d2- 
                                   1 3d1+    1 3d2+    1 3d1-    2 1s      2 1s      2 1s      2 1s      2 2px     2 2py     2 2pz  
                                   2 2px     2 2py     2 2pz     2 2px     2 2py     2 2pz     2 3d0     2 3d2-    2 3d1+    2 3d2+ 
                                   2 3d1-    2 3d0     2 3d2-    2 3d1+    2 3d2+    2 3d1- 

   1.1  2.00000   -15.683061     0.707618  0.008446 -0.022757  0.028890  0.000000  0.000000  0.005063  0.000000  0.000000 -0.002952
                                 0.000000  0.000000  0.008811  0.000748  0.000000  0.000000  0.000000  0.000000 -0.000034  0.000000
                                 0.000000  0.000000  0.000000 -0.707618 -0.008446  0.022757 -0.028890  0.000000  0.000000  0.005063
                                 0.000000  0.000000 -0.002952  0.000000  0.000000  0.008811 -0.000748  0.000000  0.000000  0.000000
                                 0.000000  0.000034  0.000000  0.000000  0.000000  0.000000

   2.1  2.00000   -15.668460     0.709902  0.003183 -0.018780  0.000456  0.000000  0.000000  0.007501  0.000000  0.000000  0.002762
                                 0.000000  0.000000  0.001212  0.000147  0.000000  0.000000  0.000000  0.000000 -0.001342  0.000000
                                 0.000000  0.000000  0.000000  0.709902  0.003183 -0.018780  0.000456  0.000000  0.000000 -0.007501
                                 0.000000  0.000000 -0.002762  0.000000  0.000000 -0.001212  0.000147  0.000000  0.000000  0.000000
                                 0.000000 -0.001342  0.000000  0.000000  0.000000  0.000000

   3.1  1.99488    -1.117679    -0.127106  0.337613  0.344462  0.014575  0.000000  0.000000 -0.113423  0.000000  0.000000 -0.088240
                                 0.000000  0.000000 -0.009550  0.004157  0.000000  0.000000  0.000000  0.000000  0.005220  0.000000
                                 0.000000  0.000000  0.000000 -0.127106  0.337613  0.344462  0.014575  0.000000  0.000000  0.113423
                                 0.000000  0.000000  0.088240  0.000000  0.000000  0.009550  0.004157  0.000000 -0.000000  0.000000
                                 0.000000  0.005220  0.000000 -0.000000  0.000000  0.000000

   4.1  1.98797    -0.814704    -0.136800  0.353441  0.492085 -0.214757 -0.000000  0.000000 -0.173730 -0.000000  0.000000 -0.047164
                                -0.000000  0.000000 -0.074514 -0.005808  0.000000 -0.000000  0.000000  0.000000 -0.002990  0.000000
                                -0.000000  0.000000  0.000000  0.136800 -0.353441 -0.492085  0.214757 -0.000000  0.000000 -0.173730
                                -0.000000  0.000000 -0.047164 -0.000000  0.000000 -0.074514  0.005808  0.000000  0.000000  0.000000
                                 0.000000  0.002990  0.000000  0.000000  0.000000  0.000000

   5.1  1.96784    -0.820026    -0.046839  0.100189 -0.065437 -0.036948 -0.000000  0.000000  0.483533 -0.000000  0.000000  0.203577
                                -0.000000  0.000000 -0.003556  0.021259  0.000000 -0.000000  0.000000  0.000000  0.023245  0.000000
                                -0.000000  0.000000  0.000000 -0.046839  0.100189 -0.065437 -0.036948 -0.000000  0.000000 -0.483533
                                -0.000000  0.000000 -0.203577 -0.000000  0.000000  0.003556  0.021259  0.000000  0.000000  0.000000
                                 0.000000  0.023245  0.000000  0.000000  0.000000  0.000000

   6.1  1.90442    -0.518254     0.000000 -0.000000 -0.000000  0.000000 -0.311698  0.311698  0.000000 -0.179305  0.179305  0.000000
                                -0.009644  0.009644  0.000000  0.000000  0.000000 -0.011446  0.000000  0.011446  0.000000  0.000000
                                -0.024224  0.000000  0.024224 -0.000000  0.000000  0.000000 -0.000000 -0.311698  0.311698  0.000000
                                -0.179305  0.179305  0.000000 -0.009644  0.009644  0.000000 -0.000000  0.000000  0.011446  0.000000
                                -0.011446 -0.000000  0.000000  0.024224  0.000000 -0.024224

   7.1  1.90442    -0.518254     0.000000 -0.000000 -0.000000  0.000000 -0.311698 -0.311698  0.000000 -0.179305 -0.179305  0.000000
                                -0.009644 -0.009644  0.000000  0.000000  0.000000 -0.011446  0.000000 -0.011446  0.000000  0.000000
                                -0.024224  0.000000 -0.024224 -0.000000  0.000000  0.000000 -0.000000 -0.311698 -0.311698  0.000000
                                -0.179305 -0.179305  0.000000 -0.009644 -0.009644  0.000000 -0.000000  0.000000  0.011446  0.000000
                                 0.011446 -0.000000  0.000000  0.024224  0.000000  0.024224

   8.1  0.10282     0.162609    -0.000000  0.000000  0.000000 -0.000000  0.635273  0.000002 -0.000000  0.258120  0.000001 -0.000000
                                -0.035137 -0.000000 -0.000000 -0.000000  0.000000  0.002016  0.000000  0.000000 -0.000000  0.000000
                                 0.011764  0.000000  0.000000  0.000000 -0.000000 -0.000000  0.000000 -0.635273 -0.000002 -0.000000
                                -0.258120 -0.000001 -0.000000  0.035137  0.000000 -0.000000  0.000000  0.000000  0.002016  0.000000
                                 0.000000  0.000000  0.000000  0.011764  0.000000  0.000000

   9.1  0.10282     0.162609    -0.000000  0.000000  0.000000 -0.000000  0.000002 -0.635273 -0.000000  0.000001 -0.258120 -0.000000
                                -0.000000  0.035137 -0.000000 -0.000000  0.000000  0.000000  0.000000 -0.002016 -0.000000  0.000000
                                 0.000000  0.000000 -0.011764  0.000000 -0.000000 -0.000000  0.000000 -0.000002  0.635273 -0.000000
                                -0.000001  0.258120 -0.000000  0.000000 -0.035137 -0.000000  0.000000  0.000000  0.000000  0.000000
                                -0.002016  0.000000  0.000000  0.000000  0.000000 -0.011764

  10.1  0.03483     0.765009    -0.088128  0.371369  0.454122 -0.247154  0.000000  0.000000  0.777967  0.000000  0.000000  0.294715
                                 0.000000  0.000000 -0.084541  0.001114  0.000000  0.000000  0.000000  0.000000 -0.000303  0.000000
                                 0.000000  0.000000  0.000000  0.088128 -0.371369 -0.454122  0.247154  0.000000  0.000000  0.777967
                                 0.000000  0.000000  0.294715  0.000000  0.000000 -0.084541 -0.001114  0.000000 -0.000000  0.000000
                                 0.000000  0.000303  0.000000 -0.000000  0.000000  0.000000

 *** IN SYMMETRY 1 ORBITAL  6 SYMMETRY CONTAMINATION OF 0.500D+00 HAS BEEN REMOVED
 *** IN SYMMETRY 1 ORBITAL  7 SYMMETRY CONTAMINATION OF 0.500D+00 HAS BEEN REMOVED

 EXTRA SYMMETRY OF MOS IN SYMMETRY 1:   1 1 1 1 1 2 3 2 3 1   1 1 2 3 3 2 1 1 1 4   5 1 3 2 3 2 2 3 1 4   5 1 3 2 1 1 1 2 3 4
                                        5 4 5 3 2 1

 Natural orbital dump at molpro section  2141.2    (Orbital set 2)


 CI vector
 =========

 22222000      0.9419511
 22220200     -0.0840369
 22202020     -0.0840369
 22220020     -0.0840360
 22202200     -0.0840360
 222ab200      0.0693968
 222ba020      0.0693968
 222ba200     -0.0693968
 222ab020     -0.0693968
 22220ba0     -0.0693968
 22220ab0      0.0693968
 22202ba0      0.0693968
 22202ab0     -0.0693968
 22022002     -0.0617234
 22200220      0.0512175
 20222020     -0.0510051
 20222200     -0.0510051

 TOTAL ENERGIES                      -109.05514204



 **********************************************************************************************************************************
 DATASETS  * FILE   NREC   LENGTH (MB)   RECORD NAMES
              1      19       21.39       500      610      700      900      950      970     1000      129      960     1100   
                                          VAR    BASINP    GEOM    SYMINP    ZMAT    AOBASIS   BASIS     P2S    ABASIS      S 
                                         1400     1410     1200     1210     1080     1600     1650     1700     1380   
                                           T        V       H0       H01     AOSYM     SMH    MOLCAS    OPER     JKOP   

              2       7       10.50       700     1000      520     2100     2140     2101     2141   
                                         GEOM     BASIS   MCVARS     RHF     MCSCF     RHF     MCSCF   

 PROGRAMS   *        TOTAL     MULTI        HF       INT     MULTI        HF       INT     MULTI        HF       INT     MULTI
 CPU TIMES  *        25.50      0.17      0.04      0.11      0.19      0.03      0.11      0.17      0.02      0.11      0.16
 REAL TIME  *        31.49 SEC
 DISK USED  *       145.67 MB      
 SF USED    *        10.33 MB      
 GA USED    *         0.00 MB       (max)       0.00 MB       (current)
 **********************************************************************************************************************************
 SETTING E(61)          =      -109.05514204  HARTREE                         
                                                                                                                                                                                                                                                                

      X               E
    1.79970623   -109.0014141
    1.80970623   -109.0091804
    1.81970623   -109.0165312
    1.82970623   -109.0234806
    1.83970623   -109.0300419
    1.84970623   -109.0362281
    1.85970623   -109.0420519
    1.86970623   -109.0475256
    1.87970623   -109.0526610
    1.88970623   -109.0574696
    1.89970623   -109.0619627
    1.90970623   -109.0661510
    1.91970623   -109.0700451
    1.92970623   -109.0736552
    1.93970623   -109.0769911
    1.94970623   -109.0800625
    1.95970623   -109.0828786
    1.96970623   -109.0854485
    1.97970623   -109.0877809
    1.98970623   -109.0898842
    1.99970623   -109.0917667
    2.00970623   -109.0934363
    2.01970623   -109.0949007
    2.02970623   -109.0961675
    2.03970623   -109.0972438
    2.04970623   -109.0981367
    2.05970623   -109.0988530
    2.06970623   -109.0993992
    2.07970623   -109.0997819
    2.08970623   -109.1000071
    2.09970623   -109.1000808
    2.10970623   -109.1000089
    2.11970623   -109.0997971
    2.12970623   -109.0994507
    2.13970623   -109.0989750
    2.14970623   -109.0983752
    2.15970623   -109.0976562
    2.16970623   -109.0968229
    2.17970623   -109.0958798
    2.18970623   -109.0948314
    2.19970623   -109.0936823
    2.20970623   -109.0924364
    2.21970623   -109.0910981
    2.22970623   -109.0896711
    2.23970623   -109.0881594
    2.24970623   -109.0865666
    2.25970623   -109.0848964
    2.26970623   -109.0831522
    2.27970623   -109.0813374
    2.28970623   -109.0794553
    2.29970623   -109.0775090
    2.30970623   -109.0755015
    2.31970623   -109.0734359
    2.32970623   -109.0713150
    2.33970623   -109.0691415
    2.34970623   -109.0669182
    2.35970623   -109.0646477
    2.36970623   -109.0623324
    2.37970623   -109.0599748
    2.38970623   -109.0575773
    2.39970623   -109.0551420
                                                  

 MULTI/6-31++G(2D,2P) energy=   -109.055142040378

        MULTI           HF-SCF          MULTI           HF-SCF          MULTI           HF-SCF          MULTI           HF-SCF  
   -109.05514204   -108.86281479   -109.05757725   -108.86671064   -109.05997480   -108.87056323   -109.06233239   -108.87437026
 **********************************************************************************************************************************
 Molpro calculation terminated
 Variable memory released
