
 Primary working directories    : /tmp/cayo
 Secondary working directories  : /tmp/cayo
 Wavefunction directory         : /home/cayo/wfu/
 Main file repository           : /tmp/cayo/

 SHA1      : 960ce83de8be0427555cf121dea4debc26c720b5
 NAME      : 2012.1.960ce83
 ARCHNAME  : Linux/x86_64
 FC        : /opt/intel/composer_xe_2013_sp1.2.144/bin/intel64/ifort
 FCVERSION : 14.0.2
 BLASLIB   : -Wl,-_start-group /opt/intel/mkl/lib/intel64/libmkl_intel_ilp64.a /opt/intel/mkl/lib/intel64/libmkl_sequential.a /opt/intel/mkl/lib/intel64/libmkl_core.a -Wl,-_end-group
 id        : liege

 Nodes     nprocs
 cayo-pc      1

 Using customized tuning parameters: mindgm=7; mindgv=24; mindgc=1; mindgr=1; noblas=0; minvec=7
 default implementation of scratch files=df  

 memory,300,m
 basis=6-31++G(2d,2p)
 symmetry,nosym
 thresh,pspace=0.4
 
 geometry={
 C                   0                   0   ,0
 H   0.6380357980   0.6380357980   0.6380357980
 H  -0.6380357980  -0.6380357980   0.6380357980
 H   0.6380357980  -0.6380357980  -0.6380357980
 H  -0.6380357980   0.6380357980  -0.6380357980
          }
 noorient
 {hf,orbital=2100.2;wf,10,1,0}
 {multi;start,2100.2;occ,9;pspace,0.4;dm;wf,10,1,0}
                                                                                 !optg
 cube,neut.cube;density,2140.2,set=1;                                            ! density and gradient of density for state 1
 
 frequencies

 Variables initialized (778), CPU time= 0.00 sec
 Commands  initialized (547), CPU time= 0.01 sec, 516 directives.
 Default parameters read. Elapsed time= 0.03 sec

 Checking input...
 Passed
1


                                         ***  PROGRAM SYSTEM MOLPRO  ***
                         Copyright, University College Cardiff Consultants Limited, 2008

                                    Version 2012.1 linked Apr  1 2014 15:33:03


 **********************************************************************************************************************************
 LABEL *                                                                                 
 Linux-4.15.0-72-generic/cayo-pc(x86_64) 64 bit serial version                           DATE: 19-Dec-19          TIME: 15:06:53  
 **********************************************************************************************************************************

 SHA1:             960ce83de8be0427555cf121dea4debc26c720b5
 **********************************************************************************************************************************

 Variable memory set to  300000000 words,  buffer space   230000 words

 SETTING BASIS          =    6-31++G(2D,2P)

 THRESHOLDS:

 ZERO    =  1.00D-12  ONEINT  =  1.00D-12  TWOINT  =  1.00D-11  PREFAC  =  1.00D-14  LOCALI  =  1.00D-09  EORDER  =  1.00D-04
 ENERGY  =  0.00D+00  ETEST   =  0.00D+00  EDENS   =  0.00D+00  THRDEDEF=  1.00D-06  GRADIENT=  1.00D-02  STEP    =  1.00D-03
 ORBITAL =  1.00D-05  CIVEC   =  1.00D-05  COEFF   =  1.00D-04  PRINTCI =  5.00D-02  PUNCHCI =  9.90D+01  OPTGRAD =  3.00D-04
 OPTENERG=  1.00D-06  OPTSTEP =  3.00D-04  THRGRAD =  1.00D-10  COMPRESS=  1.00D-11  VARMIN  =  1.00D-07  VARMAX  =  1.00D-03
 THRDOUB =  0.00D+00  THRDIV  =  1.00D-05  THRRED  =  1.00D-07  THRPSP  =  4.00D-01  THRDC   =  1.00D-10  THRCS   =  1.00D-10
 THRNRM  =  1.00D-08  THREQ   =  0.00D+00  THRDE   =  1.00D+00  THRREF  =  1.00D-05  SPARFAC =  1.00D+00  THRDLP  =  1.00D-07
 THRDIA  =  1.00D-10  THRDLS  =  1.00D-07  THRGPS  =  0.00D+00  THRKEX  =  0.00D+00  THRDIS  =  2.00D-01  THRVAR  =  1.00D-10
 THRLOC  =  1.00D-06  THRGAP  =  1.00D-06  THRLOCT = -1.00D+00  THRGAPT = -1.00D+00  THRORB  =  1.00D-06  THRMLTP =  0.00D+00
 THRCPQCI=  1.00D-10  KEXTA   =  0.00D+00  THRCOARS=  0.00D+00  SYMTOL  =  1.00D-06  GRADTOL =  1.00D-06  THROVL  =  1.00D-08
 THRORTH =  1.00D-08  GRID    =  1.00D-06  GRIDMAX =  1.00D-03  DTMAX   =  0.00D+00  THROCCDE=  1.00D-01  THROCCDE=  1.00D-01


 ZSYMEL=NOSYM
 

Geometry recognized as XYZ



 Recomputing integrals since basis changed


 Using spherical harmonics

 Library entry C      S 6-31G                selected for orbital group  1
 Library entry C      S 6-31++G              selected for orbital group  1
 Library entry C      P 6-31G                selected for orbital group  1
 Library entry C      P 6-31++G              selected for orbital group  1
 Library entry C      D 6-31G2D              selected for orbital group  1
 Library entry H      S 6-31G                selected for orbital group  2
 Library entry H      S 6-31++G              selected for orbital group  2
 Library entry H      P 6-31G2P              selected for orbital group  2

1PROGRAM * SEWARD (Integral evaluation for generally contracted gaussian basis sets)     Author: Roland Lindh, 1990

 Geometry written to block  1 of record 700


 Point group  C1  



 ATOMIC COORDINATES

 NR  ATOM    CHARGE       X              Y              Z

   1  C       6.00    0.000000000    0.000000000    0.000000000
   2  H       1.00    1.205712920    1.205712920    1.205712920
   3  H       1.00   -1.205712920   -1.205712920    1.205712920
   4  H       1.00    1.205712920   -1.205712920   -1.205712920
   5  H       1.00   -1.205712920    1.205712920   -1.205712920

 Bond lengths in Bohr (Angstrom)

 1-2  2.088356037  1-3  2.088356037  1-4  2.088356037  1-5  2.088356037
     ( 1.105110419)     ( 1.105110419)     ( 1.105110419)     ( 1.105110419)

 Bond angles

  2-1-3  109.47122063   2-1-4  109.47122063   2-1-5  109.47122063   3-1-4  109.47122063

  3-1-5  109.47122063   4-1-5  109.47122063

 NUCLEAR CHARGE:                   10
 NUMBER OF PRIMITIVE AOS:          82
 NUMBER OF SYMMETRY AOS:           80
 NUMBER OF CONTRACTIONS:           59   (  59A   )
 NUMBER OF CORE ORBITALS:           1   (   1A   )
 NUMBER OF VALENCE ORBITALS:        8   (   8A   )


 NUCLEAR REPULSION ENERGY   13.25168416


 Eigenvalues of metric

         1 0.330E-02 0.916E-02 0.916E-02 0.916E-02 0.927E-02 0.264E-01 0.264E-01 0.264E-01


 Contracted 2-electron integrals neglected if value below      1.0D-11
 AO integral compression algorithm  1   Integral accuracy      1.0D-11

     8.651 MB (compressed) written to integral file ( 52.9%)


 NUMBER OF SORTED TWO-ELECTRON INTEGRALS:    1567335.     BUFFER LENGTH:  32768
 NUMBER OF SEGMENTS:   1  SEGMENT LENGTH:    1567335      RECORD LENGTH: 524288

 Memory used in sort:       2.12 MW

 SORT1 READ     2028348. AND WROTE     1460700. INTEGRALS IN      5 RECORDS. CPU TIME:     0.01 SEC, REAL TIME:     0.03 SEC
 SORT2 READ     1460700. AND WROTE     1567335. INTEGRALS IN     33 RECORDS. CPU TIME:     0.05 SEC, REAL TIME:     0.06 SEC

 FILE SIZES:   FILE 1:    16.4 MBYTE,  FILE 4:    21.0 MBYTE,   TOTAL:     37.4 MBYTE

 OPERATOR DM      FOR CENTER  0  COORDINATES:    0.000000    0.000000    0.000000


 **********************************************************************************************************************************
 DATASETS  * FILE   NREC   LENGTH (MB)   RECORD NAMES
              1      19       14.48       500      610      700      900      950      970     1000      129      960     1100   
                                          VAR    BASINP    GEOM    SYMINP    ZMAT    AOBASIS   BASIS     P2S    ABASIS      S 
                                         1400     1410     1200     1210     1080     1600     1650     1300     1700   
                                           T        V       H0       H01     AOSYM     SMH    MOLCAS    ERIS     OPER   

 PROGRAMS   *        TOTAL       INT
 CPU TIMES  *         0.28      0.20
 REAL TIME  *         0.36 SEC
 DISK USED  *        37.71 MB      
 **********************************************************************************************************************************

1PROGRAM * RHF-SCF (CLOSED SHELL)       Authors: W. Meyer, H.-J. Werner


 NUMBER OF ELECTRONS:       5+    5-    SPACE SYMMETRY=1    SPIN SYMMETRY: Singlet 
 CONVERGENCE THRESHOLDS:    1.00E-06 (Density)    1.00E-07 (Energy)
 MAX. NUMBER OF ITERATIONS:       60
 INTERPOLATION TYPE:            DIIS
 INTERPOLATION STEPS:              2 (START)      1 (STEP)
 LEVEL SHIFTS:                  0.00 (CLOSED)  0.00 (OPEN) 



 Orbital guess generated from atomic densities. Full valence occupancy:    5

 Molecular orbital dump at record        2100.2

 ITERATION    DDIFF          GRAD             ENERGY        2-EL.EN.            DIPOLE MOMENTS         DIIS   ORB.
    1      0.000D+00      0.000D+00       -40.18342819     52.648342   -0.00000   -0.00000    0.00000    0    start
    2      0.000D+00      0.670D-02       -40.19957580     51.426616   -0.00000   -0.00000    0.00000    1    diag
    3      0.413D-02      0.258D-02       -40.20170040     51.861302    0.00000   -0.00000    0.00000    2    diag
    4      0.123D-02      0.671D-03       -40.20200019     51.797765   -0.00000    0.00000   -0.00000    3    diag
    5      0.789D-03      0.805D-04       -40.20200421     51.801110   -0.00000   -0.00000   -0.00000    4    diag
    6      0.179D-03      0.525D-05       -40.20200423     51.801106    0.00000   -0.00000   -0.00000    5    diag
    7      0.204D-04      0.362D-06       -40.20200423     51.801090    0.00000    0.00000    0.00000    6    diag
    8      0.111D-05      0.403D-07       -40.20200423     51.801090    0.00000    0.00000   -0.00000    7    diag
    9      0.112D-06      0.302D-08       -40.20200423     51.801090   -0.00000    0.00000   -0.00000    0    orth

 Final occupancy:   5

 !RHF STATE 1.1 Energy                -40.202004228204
 Nuclear energy                        13.25168416
 One-electron energy                  -79.35423355
 Two-electron energy                   25.90054516
 Virial quotient                       -1.00306574
 !RHF STATE 1.1 Dipole moment          -0.00000000     0.00000000    -0.00000000
 Dipole moment /Debye                  -0.00000000     0.00000000    -0.00000000

 Orbital energies:

         1.1          2.1          3.1          4.1          5.1          6.1          7.1
    -11.217381    -0.937028    -0.540721    -0.540721    -0.540721     0.043478     0.081110

 HOMO      5.1    -0.540721 =     -14.7138eV
 LUMO      6.1     0.043478 =       1.1831eV
 LUMO-HOMO         0.584199 =      15.8969eV


 **********************************************************************************************************************************
 DATASETS  * FILE   NREC   LENGTH (MB)   RECORD NAMES
              1      19       14.48       500      610      700      900      950      970     1000      129      960     1100   
                                          VAR    BASINP    GEOM    SYMINP    ZMAT    AOBASIS   BASIS     P2S    ABASIS      S 
                                         1400     1410     1200     1210     1080     1600     1650     1300     1700   
                                           T        V       H0       H01     AOSYM     SMH    MOLCAS    ERIS     OPER   

              2       4        0.43       700     1000      520     2100   
                                         GEOM     BASIS   MCVARS     RHF  

 PROGRAMS   *        TOTAL        HF       INT
 CPU TIMES  *         0.40      0.12      0.20
 REAL TIME  *         0.50 SEC
 DISK USED  *        37.71 MB      
 **********************************************************************************************************************************

1PROGRAM * MULTI (Direct Multiconfiguration SCF)       Authors: P.J. Knowles, H.-J. Werner (1984)     S.T. Elbert (1988)


 Number of closed-shell orbitals:   1 (   1 )
 Number of active  orbitals:        8 (   8 )
 Number of external orbitals:      50 (  50 )

 State symmetry 1

 Number of electrons:     8    Spin symmetry=Singlet   Space symmetry=1
 Number of states:        1
 Number of CSFs:       1764   (4900 determinants, 4900 intermediate states)

 Molecular orbitals read from record     2100.2  Type=RHF/CANONICAL (state 1.1)

 Wavefunction dump at record             2140.2

 Convergence thresholds  0.10E-01 (gradient)  0.10E-05 (energy)  0.10E-02 (step length)

 Number of orbital rotations:      458   (     8 Core/Active     50 Core/Virtual   0 Active/Active    400 Active/Virtual)
 Total number of variables:       5358


 ITER. MIC  NCI  NEG     ENERGY(VAR)     ENERGY(PROJ)   ENERGY CHANGE     GRAD(0)  GRAD(ORB)   GRAD(CI)     STEP       TIME

   1   40   19    0     -40.20229225     -40.28648842   -0.08419617    0.00151764 0.00036813 0.00069210  0.18D+01      0.19
   2   23   22    0     -40.28262683     -40.28481317   -0.00218634    0.03762226 0.00000007 0.00000127  0.24D+00      0.40
   3   30   11    0     -40.28481492     -40.28481493   -0.00000001    0.00003279 0.00000016 0.00000451  0.59D-03      0.51

 ** WVFN ****  CONVERGENCE REACHED, FINAL GRADIENT:  0.33D-06


 First order charge density matrix for state 1.1 saved on record  2140.2 (density set 1)

 Results for state 1.1
 =====================

 !MCSCF STATE 1.1 Energy              -40.284814931225
 Nuclear energy                        13.25168416
 Kinetic energy                        40.24988842
 One electron energy                  -79.35011984
 Two electron energy                   25.81362075
 Virial ratio                           2.00086774

 !MCSCF STATE 1.1 Dipole moment         0.00000005     0.00000002     0.00000002
 Dipole moment /Debye                   0.00000013     0.00000004     0.00000006


 Natural orbital dump at molpro section  2140.2    (Orbital set 2)



 **********************************************************************************************************************************
 DATASETS  * FILE   NREC   LENGTH (MB)   RECORD NAMES
              1      20       16.42       500      610      700      900      950      970     1000      129      960     1100   
                                          VAR    BASINP    GEOM    SYMINP    ZMAT    AOBASIS   BASIS     P2S    ABASIS      S 
                                         1400     1410     1200     1210     1080     1600     1650     1300     1700     1380   
                                           T        V       H0       H01     AOSYM     SMH    MOLCAS    ERIS     OPER     JKOP   

              2       5        0.61       700     1000      520     2100     2140   
                                         GEOM     BASIS   MCVARS     RHF     MCSCF   

 PROGRAMS   *        TOTAL     MULTI        HF       INT
 CPU TIMES  *         0.99      0.59      0.12      0.20
 REAL TIME  *         1.15 SEC
 DISK USED  *        37.71 MB      
 **********************************************************************************************************************************

1PROGRAM * CUBE (Write data to grid)     Author: P.J. Knowles, 1997
 Formatted data will be written to files with base name neut
 Grid dimensions:              80             80             80
 Grid centroid:         0.0000000      0.0000000      0.0000000
 Axes:                  1.0000000      0.0000000      0.0000000
                        0.0000000      1.0000000      0.0000000
                        0.0000000      0.0000000      1.0000000
 Grid spacing:          0.1506997      0.1506997      0.1506997
 Density matrix read from record         2140.2  Type=MCSCF/CHARGE (state 1.1)
 Density to be written to neut_density.cube


 **********************************************************************************************************************************
 DATASETS  * FILE   NREC   LENGTH (MB)   RECORD NAMES
              1      20       16.42       500      610      700      900      950      970     1000      129      960     1100   
                                          VAR    BASINP    GEOM    SYMINP    ZMAT    AOBASIS   BASIS     P2S    ABASIS      S 
                                         1400     1410     1200     1210     1080     1600     1650     1300     1700     1380   
                                           T        V       H0       H01     AOSYM     SMH    MOLCAS    ERIS     OPER     JKOP   

              2       5        0.61       700     1000      520     2100     2140   
                                         GEOM     BASIS   MCVARS     RHF     MCSCF   

 PROGRAMS   *        TOTAL      CUBE     MULTI        HF       INT
 CPU TIMES  *         1.64      0.65      0.59      0.12      0.20
 REAL TIME  *         1.98 SEC
 DISK USED  *        37.71 MB      
 **********************************************************************************************************************************


 PROGRAM * HESSIAN

 Computing numerical hessian using default procedure for command MULTI

 Symmetry elements for unique displacements: XZ YZ 

 Using no symmetry in wavefunction calculations

 Running default procedure: MULTI000
 

 *** Long output written to logfile /home/cayo/CH4_geometry_files/optg_neut_td.log ***


 Numerically approximating hessian using central gradient differences

 Task list generated. Total number of displacements:      9


 RECORD SPECIFICATION MISSING ON MCSCF CARD

 GLOBAL ERROR fehler on processor   0                                         
