
 Primary working directories    : /tmp/cayo
 Secondary working directories  : /tmp/cayo
 Wavefunction directory         : /home/cayo/wfu/
 Main file repository           : /tmp/cayo/

 SHA1      : 960ce83de8be0427555cf121dea4debc26c720b5
 NAME      : 2012.1.960ce83
 ARCHNAME  : Linux/x86_64
 FC        : /opt/intel/composer_xe_2013_sp1.2.144/bin/intel64/ifort
 FCVERSION : 14.0.2
 BLASLIB   : -Wl,-_start-group /opt/intel/mkl/lib/intel64/libmkl_intel_ilp64.a /opt/intel/mkl/lib/intel64/libmkl_sequential.a /opt/intel/mkl/lib/intel64/libmkl_core.a -Wl,-_end-group
 id        : liege

 Nodes     nprocs
 cayo-pc      1

 Using customized tuning parameters: mindgm=7; mindgv=24; mindgc=1; mindgr=1; noblas=0; minvec=7
 default implementation of scratch files=df  

 memory,300,m
 basis=6-31++G(2d,2p)
 symmetry,nosym
 thresh,pspace=0.4
 
 geometry={
 C                   0                   0   ,0
 H   0.6380357980   0.6380357980   0.6380357980
 H  -0.6380357980  -0.6380357980   0.6380357980
 H   0.6380357980  -0.6380357980  -0.6380357980
 H  -0.6380357980   0.6380357980  -0.6380357980
          }
 noorient
 {hf,orbital=2100.2;wf,9,1,1}
 {multi;start,2100.2;occ,9;pspace,0.4;dm;wf,9,1,1;state,3}
                                                                                 !optg
 cube,state01.cube;density,2140.2,set=1,state=1.1;                               ! density and gradient of density for state 1
 cube,state02.cube;density,2140.2,set=2,state=2.1;                               ! density and gradient of density for state 1
 cube,state03.cube;density,2140.2,set=3,state=3.1;                               ! density and gradient of density for state 1
 
 
 frequencies

 Variables initialized (778), CPU time= 0.00 sec
 Commands  initialized (547), CPU time= 0.01 sec, 516 directives.
 Default parameters read. Elapsed time= 0.03 sec

 Checking input...
 Passed
1


                                         ***  PROGRAM SYSTEM MOLPRO  ***
                         Copyright, University College Cardiff Consultants Limited, 2008

                                    Version 2012.1 linked Apr  1 2014 15:33:03


 **********************************************************************************************************************************
 LABEL *                                                                                 
 Linux-4.15.0-72-generic/cayo-pc(x86_64) 64 bit serial version                           DATE: 19-Dec-19          TIME: 15:23:17  
 **********************************************************************************************************************************

 SHA1:             960ce83de8be0427555cf121dea4debc26c720b5
 **********************************************************************************************************************************

 Variable memory set to  300000000 words,  buffer space   230000 words

 SETTING BASIS          =    6-31++G(2D,2P)

 THRESHOLDS:

 ZERO    =  1.00D-12  ONEINT  =  1.00D-12  TWOINT  =  1.00D-11  PREFAC  =  1.00D-14  LOCALI  =  1.00D-09  EORDER  =  1.00D-04
 ENERGY  =  0.00D+00  ETEST   =  0.00D+00  EDENS   =  0.00D+00  THRDEDEF=  1.00D-06  GRADIENT=  1.00D-02  STEP    =  1.00D-03
 ORBITAL =  1.00D-05  CIVEC   =  1.00D-05  COEFF   =  1.00D-04  PRINTCI =  5.00D-02  PUNCHCI =  9.90D+01  OPTGRAD =  3.00D-04
 OPTENERG=  1.00D-06  OPTSTEP =  3.00D-04  THRGRAD =  1.00D-10  COMPRESS=  1.00D-11  VARMIN  =  1.00D-07  VARMAX  =  1.00D-03
 THRDOUB =  0.00D+00  THRDIV  =  1.00D-05  THRRED  =  1.00D-07  THRPSP  =  4.00D-01  THRDC   =  1.00D-10  THRCS   =  1.00D-10
 THRNRM  =  1.00D-08  THREQ   =  0.00D+00  THRDE   =  1.00D+00  THRREF  =  1.00D-05  SPARFAC =  1.00D+00  THRDLP  =  1.00D-07
 THRDIA  =  1.00D-10  THRDLS  =  1.00D-07  THRGPS  =  0.00D+00  THRKEX  =  0.00D+00  THRDIS  =  2.00D-01  THRVAR  =  1.00D-10
 THRLOC  =  1.00D-06  THRGAP  =  1.00D-06  THRLOCT = -1.00D+00  THRGAPT = -1.00D+00  THRORB  =  1.00D-06  THRMLTP =  0.00D+00
 THRCPQCI=  1.00D-10  KEXTA   =  0.00D+00  THRCOARS=  0.00D+00  SYMTOL  =  1.00D-06  GRADTOL =  1.00D-06  THROVL  =  1.00D-08
 THRORTH =  1.00D-08  GRID    =  1.00D-06  GRIDMAX =  1.00D-03  DTMAX   =  0.00D+00  THROCCDE=  1.00D-01  THROCCDE=  1.00D-01


 ZSYMEL=NOSYM
 

Geometry recognized as XYZ



 Recomputing integrals since basis changed


 Using spherical harmonics

 Library entry C      S 6-31G                selected for orbital group  1
 Library entry C      S 6-31++G              selected for orbital group  1
 Library entry C      P 6-31G                selected for orbital group  1
 Library entry C      P 6-31++G              selected for orbital group  1
 Library entry C      D 6-31G2D              selected for orbital group  1
 Library entry H      S 6-31G                selected for orbital group  2
 Library entry H      S 6-31++G              selected for orbital group  2
 Library entry H      P 6-31G2P              selected for orbital group  2

1PROGRAM * SEWARD (Integral evaluation for generally contracted gaussian basis sets)     Author: Roland Lindh, 1990

 Geometry written to block  1 of record 700


 Point group  C1  



 ATOMIC COORDINATES

 NR  ATOM    CHARGE       X              Y              Z

   1  C       6.00    0.000000000    0.000000000    0.000000000
   2  H       1.00    1.205712920    1.205712920    1.205712920
   3  H       1.00   -1.205712920   -1.205712920    1.205712920
   4  H       1.00    1.205712920   -1.205712920   -1.205712920
   5  H       1.00   -1.205712920    1.205712920   -1.205712920

 Bond lengths in Bohr (Angstrom)

 1-2  2.088356037  1-3  2.088356037  1-4  2.088356037  1-5  2.088356037
     ( 1.105110419)     ( 1.105110419)     ( 1.105110419)     ( 1.105110419)

 Bond angles

  2-1-3  109.47122063   2-1-4  109.47122063   2-1-5  109.47122063   3-1-4  109.47122063

  3-1-5  109.47122063   4-1-5  109.47122063

 NUCLEAR CHARGE:                   10
 NUMBER OF PRIMITIVE AOS:          82
 NUMBER OF SYMMETRY AOS:           80
 NUMBER OF CONTRACTIONS:           59   (  59A   )
 NUMBER OF CORE ORBITALS:           1   (   1A   )
 NUMBER OF VALENCE ORBITALS:        8   (   8A   )


 NUCLEAR REPULSION ENERGY   13.25168416


 Eigenvalues of metric

         1 0.330E-02 0.916E-02 0.916E-02 0.916E-02 0.927E-02 0.264E-01 0.264E-01 0.264E-01


 Contracted 2-electron integrals neglected if value below      1.0D-11
 AO integral compression algorithm  1   Integral accuracy      1.0D-11

     8.651 MB (compressed) written to integral file ( 52.9%)


 NUMBER OF SORTED TWO-ELECTRON INTEGRALS:    1567335.     BUFFER LENGTH:  32768
 NUMBER OF SEGMENTS:   1  SEGMENT LENGTH:    1567335      RECORD LENGTH: 524288

 Memory used in sort:       2.12 MW

 SORT1 READ     2028348. AND WROTE     1460700. INTEGRALS IN      5 RECORDS. CPU TIME:     0.02 SEC, REAL TIME:     0.03 SEC
 SORT2 READ     1460700. AND WROTE     1567335. INTEGRALS IN     33 RECORDS. CPU TIME:     0.05 SEC, REAL TIME:     0.06 SEC

 FILE SIZES:   FILE 1:    16.4 MBYTE,  FILE 4:    21.0 MBYTE,   TOTAL:     37.4 MBYTE

 OPERATOR DM      FOR CENTER  0  COORDINATES:    0.000000    0.000000    0.000000


 **********************************************************************************************************************************
 DATASETS  * FILE   NREC   LENGTH (MB)   RECORD NAMES
              1      19       14.48       500      610      700      900      950      970     1000      129      960     1100   
                                          VAR    BASINP    GEOM    SYMINP    ZMAT    AOBASIS   BASIS     P2S    ABASIS      S 
                                         1400     1410     1200     1210     1080     1600     1650     1300     1700   
                                           T        V       H0       H01     AOSYM     SMH    MOLCAS    ERIS     OPER   

 PROGRAMS   *        TOTAL       INT
 CPU TIMES  *         0.29      0.19
 REAL TIME  *         0.38 SEC
 DISK USED  *        37.71 MB      
 **********************************************************************************************************************************

1PROGRAM * RHF-SCF (OPEN SHELL)       Authors: W. Meyer, H.-J. Werner


 NUMBER OF ELECTRONS:       5+    4-    SPACE SYMMETRY=1    SPIN SYMMETRY: Doublet 
 CONVERGENCE THRESHOLDS:    1.00E-06 (Density)    1.00E-07 (Energy)
 MAX. NUMBER OF ITERATIONS:       60
 INTERPOLATION TYPE:            DIIS
 INTERPOLATION STEPS:              2 (START)      1 (STEP)
 LEVEL SHIFTS:                 -0.30 (CLOSED)  0.00 (OPEN) 



 Orbital guess generated from atomic densities. Full valence occupancy:    5

 Molecular orbital dump at record        2100.2

 ITERATION    DDIFF          GRAD             ENERGY        2-EL.EN.            DIPOLE MOMENTS         DIIS   ORB.
    1      0.000D+00      0.000D+00       -39.66923313     43.925107   -0.09496   -0.16878    0.40600    0    start
    2      0.000D+00      0.883D-02       -39.70466817     45.284083   -0.06179   -0.11535    0.28432    1    diag,B
    3      0.434D-02      0.249D-02       -39.70788867     45.213653   -0.07164   -0.11687    0.27159    2    diag,B
    4      0.185D-02      0.838D-03       -39.70853849     45.251369   -0.08047   -0.12134    0.26920    3    diag,B
    5      0.771D-03      0.309D-03       -39.70877755     45.252170   -0.08874   -0.12784    0.27231    4    diag,B
    6      0.248D-03      0.238D-03       -39.70905065     45.247990   -0.09834   -0.13611    0.27559    5    diag,B
    7      0.235D-03      0.226D-03       -39.70929270     45.245983   -0.10596   -0.14306    0.27777    6    fixocc
    8      0.197D-03      0.225D-03       -39.70931353     45.245802   -0.10654   -0.14363    0.27791    7    diag,B
    9      0.168D-04      0.225D-03       -39.70746610     45.261722   -0.05446   -0.07921    0.25795    8    diag,B
   10      0.164D-02      0.232D-03       -39.70748251     45.261490   -0.05481   -0.07989    0.25835    9    orth
   11      0.165D-04      0.228D-03       -39.70683901     45.267013   -0.02487   -0.03857    0.25018    9    diag,B
   12      0.872D-03      0.155D-03       -39.70684582     45.263871   -0.01601   -0.02777    0.25373    9    diag,B
   13      0.214D-03      0.172D-03       -39.70698132     45.262276   -0.01662   -0.02956    0.25950    9    diag,B
   14      0.172D-03      0.185D-03       -39.70707174     45.261929   -0.01478   -0.02562    0.26374    9    diag,B
   15      0.147D-03      0.174D-03       -39.70745262     45.260158   -0.01144   -0.01692    0.27873    9    diag,B
   16      0.562D-03      0.130D-03       -39.70831065     45.247359   -0.00215   -0.00697    0.30314    9    diag,B
   17      0.162D-02      0.204D-03       -39.70823435     45.249006   -0.00376   -0.00844    0.30130    9    diag,B
   18      0.206D-03      0.187D-03       -39.70838006     45.249266   -0.00167   -0.00460    0.30767    9    diag,B
   19      0.378D-03      0.148D-03       -39.70859346     45.247701   -0.00295   -0.00335    0.31624    9    diag,B
   20      0.919D-03      0.961D-04       -39.70858905     45.252720    0.00138    0.00093    0.32148    9    orth
   21      0.132D-03      0.308D-04       -39.70861604     45.249029    0.00204    0.00188    0.31760    9    diag,B
   22      0.507D-03      0.748D-04       -39.70861826     45.250067    0.00207    0.00212    0.31925    9    diag,B
   23      0.553D-04      0.452D-04       -39.70861897     45.251765    0.00153    0.00198    0.32205    9    diag,B
   24      0.430D-04      0.112D-04       -39.70861929     45.251273    0.00182    0.00183    0.32105    9    diag,B
   25      0.392D-04      0.132D-04       -39.70861909     45.252105    0.00120    0.00130    0.32233    9    diag,B
   26      0.244D-04      0.107D-04       -39.70861911     45.251960    0.00080    0.00084    0.32209    9    diag,B
   27      0.144D-04      0.617D-05       -39.70861912     45.251656    0.00053    0.00052    0.32161    9    diag,B
   28      0.167D-04      0.299D-05       -39.70861910     45.251756    0.00020    0.00020    0.32177    9    diag,B
   29      0.718D-05      0.549D-06       -39.70861909     45.251753    0.00004    0.00004    0.32176    9    diag,B
   30      0.353D-05      0.129D-06       -39.70861909     45.251753    0.00000    0.00000    0.32176    9    orth
   31      0.109D-05      0.312D-07       -39.70861909     45.251752    0.00000    0.00000    0.32176    9    diag,B
   32      0.204D-06      0.664D-08       -39.70861909     45.251752    0.00000    0.00000    0.32176    0    orth

 Final alpha occupancy:   5
 Final beta  occupancy:   4

 !RHF STATE 1.1 Energy                -39.708619090988
 Nuclear energy                        13.25168416
 One-electron energy                  -75.58617945
 Two-electron energy                   22.62587620
 Virial quotient                       -0.99612410
 !RHF STATE 1.1 Dipole moment           0.00000073     0.00000076     0.32176305
 Dipole moment /Debye                   0.00000186     0.00000192     0.81778653

 Orbital energies:

         1.1          2.1          3.1          4.1          5.1          6.1          7.1
    -11.600668    -1.289653    -0.896160    -0.884828    -0.991810    -0.134260    -0.087475

 HOMO      5.1    -0.991810 =     -26.9885eV
 LUMO      6.1    -0.134260 =      -3.6534eV
 LUMO-HOMO         0.857549 =      23.3351eV


 **********************************************************************************************************************************
 DATASETS  * FILE   NREC   LENGTH (MB)   RECORD NAMES
              1      19       14.48       500      610      700      900      950      970     1000      129      960     1100   
                                          VAR    BASINP    GEOM    SYMINP    ZMAT    AOBASIS   BASIS     P2S    ABASIS      S 
                                         1400     1410     1200     1210     1080     1600     1650     1300     1700   
                                           T        V       H0       H01     AOSYM     SMH    MOLCAS    ERIS     OPER   

              2       4        0.46       700     1000      520     2100   
                                         GEOM     BASIS   MCVARS     RHF  

 PROGRAMS   *        TOTAL        HF       INT
 CPU TIMES  *         0.74      0.46      0.19
 REAL TIME  *         0.88 SEC
 DISK USED  *        37.71 MB      
 **********************************************************************************************************************************

1PROGRAM * MULTI (Direct Multiconfiguration SCF)       Authors: P.J. Knowles, H.-J. Werner (1984)     S.T. Elbert (1988)


 Number of closed-shell orbitals:   1 (   1 )
 Number of active  orbitals:        8 (   8 )
 Number of external orbitals:      50 (  50 )

 State symmetry 1

 Number of electrons:     7    Spin symmetry=Doublet   Space symmetry=1
 Number of states:        3
 Number of CSFs:       2352   (3920 determinants, 3920 intermediate states)

 Molecular orbitals read from record     2100.2  Type=RHF/CANONICAL (state 1.1)

 Wavefunction dump at record             2140.2

 Convergence thresholds  0.10E-01 (gradient)  0.10E-05 (energy)  0.10E-02 (step length)

 Weight factors for state symmetry  1:    0.33333   0.33333   0.33333

 Number of orbital rotations:      458   (     8 Core/Active     50 Core/Virtual   0 Active/Active    400 Active/Virtual)
 Total number of variables:      12218


 ITER. MIC  NCI  NEG     ENERGY(VAR)     ENERGY(PROJ)   ENERGY CHANGE     GRAD(0)  GRAD(ORB)   GRAD(CI)     STEP       TIME

   1   50   22    0     -39.69820049     -39.78041560   -0.08221512    0.12744278 0.00015014 0.00189007  0.18D+01      0.29
   2   24   26    0     -39.77692947     -39.77823658   -0.00130712    0.02427284 0.00000057 0.00001978  0.19D+00      0.66
   3   24   10    0     -39.77823702     -39.77823703   -0.00000000    0.00003713 0.00000017 0.00000371  0.26D-03      0.81

 ** WVFN ****  CONVERGENCE REACHED, FINAL GRADIENT:  0.25D-06


 First order charge density matrix for state 1.1 saved on record  2140.2 (density set 1)
 First order charge density matrix for state 2.1 saved on record  2140.2 (density set 2)
 First order charge density matrix for state 3.1 saved on record  2140.2 (density set 3)

 Results for state 1.1
 =====================

 !MCSCF STATE 1.1 Energy              -39.778237071047
 Nuclear energy                        13.25168416
 Kinetic energy                        40.02371206
 One electron energy                  -75.55380306
 Two electron energy                   22.52388183
 Virial ratio                           1.99386676

 !MCSCF STATE 1.1 Dipole moment         0.00004168     0.00004168     0.37379266
 Dipole moment /Debye                   0.00010593     0.00010594     0.95002394

 Results for state 2.1
 =====================

 !MCSCF STATE 2.1 Energy              -39.778237027799
 Nuclear energy                        13.25168416
 Kinetic energy                        40.02371190
 One electron energy                  -75.55380313
 Two electron energy                   22.52388194
 Virial ratio                           1.99386676

 !MCSCF STATE 2.1 Dipole moment        -0.00414990     0.00406707    -0.00002224
 Dipole moment /Debye                  -0.01054731     0.01033677    -0.00005652

 Results for state 3.1
 =====================

 !MCSCF STATE 3.1 Energy              -39.778236983166
 Nuclear energy                        13.25168416
 Kinetic energy                        40.02371172
 One electron energy                  -75.55380320
 Two electron energy                   22.52388206
 Virial ratio                           1.99386677

 !MCSCF STATE 3.1 Dipole moment         0.00410822    -0.00410874    -0.37376995
 Dipole moment /Debye                   0.01044137    -0.01044270    -0.94996624

 State-averaged charge density matrix saved on record  2140.2 (density set 4)

 !MCSCF expec         <1.1|DMX|1.1>     0.000041679532 au =     0.000105931866 Debye
 !MCSCF trans         <2.1|DMX|1.1>     0.264319735710 au =     0.671789753886 Debye
 !MCSCF expec         <2.1|DMX|2.1>    -0.004149902911 au =    -0.010547310242 Debye
 !MCSCF trans         <3.1|DMX|1.1>     0.002075267900 au =     0.005274459390 Debye
 !MCSCF trans         <3.1|DMX|2.1>     0.264262663740 au =     0.671644700908 Debye
 !MCSCF expec         <3.1|DMX|3.1>     0.004108219464 au =     0.010441368426 Debye

 !MCSCF expec         <1.1|DMY|1.1>     0.000041681098 au =     0.000105935846 Debye
 !MCSCF trans         <2.1|DMY|1.1>     0.264286708076 au =     0.671705811512 Debye
 !MCSCF expec         <2.1|DMY|2.1>     0.004067065530 au =     0.010336772411 Debye
 !MCSCF trans         <3.1|DMY|1.1>     0.002033329526 au =     0.005167869656 Debye
 !MCSCF trans         <3.1|DMY|2.1>    -0.264296660576 au =    -0.671731106587 Debye
 !MCSCF expec         <3.1|DMY|3.1>    -0.004108743017 au =    -0.010442699078 Debye

 !MCSCF expec         <1.1|DMZ|1.1>     0.373792657872 au =     0.950023943394 Debye
 !MCSCF trans         <2.1|DMZ|1.1>    -0.000029104965 au =    -0.000073972597 Debye
 !MCSCF expec         <2.1|DMZ|2.1>    -0.000022239350 au =    -0.000056523088 Debye
 !MCSCF trans         <3.1|DMZ|1.1>    -0.000047395724 au =    -0.000120460024 Debye
 !MCSCF trans         <3.1|DMZ|2.1>     0.002905133753 au =     0.007383629843 Debye
 !MCSCF expec         <3.1|DMZ|3.1>    -0.373769954107 au =    -0.949966239960 Debye


 Natural orbital dump (state averaged) at molpro section  2140.2    (Orbital set 2)



 **********************************************************************************************************************************
 DATASETS  * FILE   NREC   LENGTH (MB)   RECORD NAMES
              1      20       16.42       500      610      700      900      950      970     1000      129      960     1100   
                                          VAR    BASINP    GEOM    SYMINP    ZMAT    AOBASIS   BASIS     P2S    ABASIS      S 
                                         1400     1410     1200     1210     1080     1600     1650     1300     1700     1380   
                                           T        V       H0       H01     AOSYM     SMH    MOLCAS    ERIS     OPER     JKOP   

              2       5        0.65       700     1000      520     2100     2140   
                                         GEOM     BASIS   MCVARS     RHF     MCSCF   

 PROGRAMS   *        TOTAL     MULTI        HF       INT
 CPU TIMES  *         1.66      0.92      0.46      0.19
 REAL TIME  *         1.86 SEC
 DISK USED  *        37.71 MB      
 **********************************************************************************************************************************

1PROGRAM * CUBE (Write data to grid)     Author: P.J. Knowles, 1997
 Formatted data will be written to files with base name state01
 Grid dimensions:              80             80             80
 Grid centroid:         0.0000000      0.0000000      0.0000000
 Axes:                  1.0000000      0.0000000      0.0000000
                        0.0000000      1.0000000      0.0000000
                        0.0000000      0.0000000      1.0000000
 Grid spacing:          0.1506997      0.1506997      0.1506997
 Density matrix read from record         2140.2  Type=MCSCF/CHARGE (state 1.1)
 Density to be written to state01_density.cube


 **********************************************************************************************************************************
 DATASETS  * FILE   NREC   LENGTH (MB)   RECORD NAMES
              1      20       16.42       500      610      700      900      950      970     1000      129      960     1100   
                                          VAR    BASINP    GEOM    SYMINP    ZMAT    AOBASIS   BASIS     P2S    ABASIS      S 
                                         1400     1410     1200     1210     1080     1600     1650     1300     1700     1380   
                                           T        V       H0       H01     AOSYM     SMH    MOLCAS    ERIS     OPER     JKOP   

              2       5        0.65       700     1000      520     2100     2140   
                                         GEOM     BASIS   MCVARS     RHF     MCSCF   

 PROGRAMS   *        TOTAL      CUBE     MULTI        HF       INT
 CPU TIMES  *         2.32      0.65      0.92      0.46      0.19
 REAL TIME  *         2.69 SEC
 DISK USED  *        37.71 MB      
 **********************************************************************************************************************************

1PROGRAM * CUBE (Write data to grid)     Author: P.J. Knowles, 1997
 Formatted data will be written to files with base name state02
 Grid dimensions:              80             80             80
 Grid centroid:         0.0000000      0.0000000      0.0000000
 Axes:                  1.0000000      0.0000000      0.0000000
                        0.0000000      1.0000000      0.0000000
                        0.0000000      0.0000000      1.0000000
 Grid spacing:          0.1506997      0.1506997      0.1506997
 Density matrix read from record         2140.2  Type=MCSCF/CHARGE (state 2.1)
 Density to be written to state02_density.cube


 **********************************************************************************************************************************
 DATASETS  * FILE   NREC   LENGTH (MB)   RECORD NAMES
              1      20       16.42       500      610      700      900      950      970     1000      129      960     1100   
                                          VAR    BASINP    GEOM    SYMINP    ZMAT    AOBASIS   BASIS     P2S    ABASIS      S 
                                         1400     1410     1200     1210     1080     1600     1650     1300     1700     1380   
                                           T        V       H0       H01     AOSYM     SMH    MOLCAS    ERIS     OPER     JKOP   

              2       5        0.65       700     1000      520     2100     2140   
                                         GEOM     BASIS   MCVARS     RHF     MCSCF   

 PROGRAMS   *        TOTAL      CUBE      CUBE     MULTI        HF       INT
 CPU TIMES  *         2.98      0.67      0.65      0.92      0.46      0.19
 REAL TIME  *         3.52 SEC
 DISK USED  *        37.71 MB      
 **********************************************************************************************************************************

1PROGRAM * CUBE (Write data to grid)     Author: P.J. Knowles, 1997
 Formatted data will be written to files with base name state03
 Grid dimensions:              80             80             80
 Grid centroid:         0.0000000      0.0000000      0.0000000
 Axes:                  1.0000000      0.0000000      0.0000000
                        0.0000000      1.0000000      0.0000000
                        0.0000000      0.0000000      1.0000000
 Grid spacing:          0.1506997      0.1506997      0.1506997
 Density matrix read from record         2140.2  Type=MCSCF/CHARGE (state 3.1)
 Density to be written to state03_density.cube


 **********************************************************************************************************************************
 DATASETS  * FILE   NREC   LENGTH (MB)   RECORD NAMES
              1      20       16.42       500      610      700      900      950      970     1000      129      960     1100   
                                          VAR    BASINP    GEOM    SYMINP    ZMAT    AOBASIS   BASIS     P2S    ABASIS      S 
                                         1400     1410     1200     1210     1080     1600     1650     1300     1700     1380   
                                           T        V       H0       H01     AOSYM     SMH    MOLCAS    ERIS     OPER     JKOP   

              2       5        0.65       700     1000      520     2100     2140   
                                         GEOM     BASIS   MCVARS     RHF     MCSCF   

 PROGRAMS   *        TOTAL      CUBE      CUBE      CUBE     MULTI        HF       INT
 CPU TIMES  *         3.64      0.66      0.67      0.65      0.92      0.46      0.19
 REAL TIME  *         4.34 SEC
 DISK USED  *        37.71 MB      
 **********************************************************************************************************************************


 PROGRAM * HESSIAN

 Computing numerical hessian using default procedure for command MULTI

 Symmetry elements for unique displacements: XZ YZ 

 Using no symmetry in wavefunction calculations

 Running default procedure: MULTI000
 

 *** Long output written to logfile /home/cayo/CH4_geometry_files/optg_cation_td.log ***


 Numerically approximating hessian using central gradient differences

 Task list generated. Total number of displacements:      9


 RECORD SPECIFICATION MISSING ON MCSCF CARD

 GLOBAL ERROR fehler on processor   0                                         
