
 Primary working directories    : /tmp/cayo
 Secondary working directories  : /tmp/cayo
 Wavefunction directory         : /home/cayo/wfu/
 Main file repository           : /tmp/cayo/

 SHA1      : 960ce83de8be0427555cf121dea4debc26c720b5
 NAME      : 2012.1.960ce83
 ARCHNAME  : Linux/x86_64
 FC        : /opt/intel/composer_xe_2013_sp1.2.144/bin/intel64/ifort
 FCVERSION : 14.0.2
 BLASLIB   : -Wl,-_start-group /opt/intel/mkl/lib/intel64/libmkl_intel_ilp64.a /opt/intel/mkl/lib/intel64/libmkl_sequential.a /opt/intel/mkl/lib/intel64/libmkl_core.a -Wl,-_end-group
 id        : liege

 Nodes     nprocs
 cayo-pc      1

 Using customized tuning parameters: mindgm=7; mindgv=24; mindgc=1; mindgr=1; noblas=0; minvec=7
 default implementation of scratch files=df  

 memory,300,m
 basis=6-31++G(2d,2p)
 symmetry,nosym
 thresh,pspace=0.4
 
 geometry={
 C                   0                   0  -0.079040063432499
 H   0.372158969900000   0.372158969900000   1.030682323467501
 H  -0.372158969900000  -0.372158969900000   1.030682323467501
 H   0.696715570400000  -0.696715570400000  -0.559746453332499
 H  -0.696715570400000   0.696715570400000  -0.559746453332499
          }
 noorient
 {hf,orbital=2100.2;wf,9,1,1}
 {multi;start,2100.2;occ,9;pspace,0.4;wf,9,1,1}
 optg

 Variables initialized (778), CPU time= 0.00 sec
 Commands  initialized (547), CPU time= 0.01 sec, 516 directives.
 Default parameters read. Elapsed time= 0.04 sec

 Checking input...
 Passed
1


                                         ***  PROGRAM SYSTEM MOLPRO  ***
                         Copyright, University College Cardiff Consultants Limited, 2008

                                    Version 2012.1 linked Apr  1 2014 15:33:03


 **********************************************************************************************************************************
 LABEL *                                                                                 
 Linux-4.15.0-65-generic/cayo-pc(x86_64) 64 bit serial version                           DATE: 29-Oct-19          TIME: 15:50:49  
 **********************************************************************************************************************************

 SHA1:             960ce83de8be0427555cf121dea4debc26c720b5
 **********************************************************************************************************************************

 Variable memory set to  300000000 words,  buffer space   230000 words

 SETTING BASIS          =    6-31++G(2D,2P)

 THRESHOLDS:

 ZERO    =  1.00D-12  ONEINT  =  1.00D-12  TWOINT  =  1.00D-11  PREFAC  =  1.00D-14  LOCALI  =  1.00D-09  EORDER  =  1.00D-04
 ENERGY  =  0.00D+00  ETEST   =  0.00D+00  EDENS   =  0.00D+00  THRDEDEF=  1.00D-06  GRADIENT=  1.00D-02  STEP    =  1.00D-03
 ORBITAL =  1.00D-05  CIVEC   =  1.00D-05  COEFF   =  1.00D-04  PRINTCI =  5.00D-02  PUNCHCI =  9.90D+01  OPTGRAD =  3.00D-04
 OPTENERG=  1.00D-06  OPTSTEP =  3.00D-04  THRGRAD =  1.00D-10  COMPRESS=  1.00D-11  VARMIN  =  1.00D-07  VARMAX  =  1.00D-03
 THRDOUB =  0.00D+00  THRDIV  =  1.00D-05  THRRED  =  1.00D-07  THRPSP  =  4.00D-01  THRDC   =  1.00D-10  THRCS   =  1.00D-10
 THRNRM  =  1.00D-08  THREQ   =  0.00D+00  THRDE   =  1.00D+00  THRREF  =  1.00D-05  SPARFAC =  1.00D+00  THRDLP  =  1.00D-07
 THRDIA  =  1.00D-10  THRDLS  =  1.00D-07  THRGPS  =  0.00D+00  THRKEX  =  0.00D+00  THRDIS  =  2.00D-01  THRVAR  =  1.00D-10
 THRLOC  =  1.00D-06  THRGAP  =  1.00D-06  THRLOCT = -1.00D+00  THRGAPT = -1.00D+00  THRORB  =  1.00D-06  THRMLTP =  0.00D+00
 THRCPQCI=  1.00D-10  KEXTA   =  0.00D+00  THRCOARS=  0.00D+00  SYMTOL  =  1.00D-06  GRADTOL =  1.00D-06  THROVL  =  1.00D-08
 THRORTH =  1.00D-08  GRID    =  1.00D-06  GRIDMAX =  1.00D-03  DTMAX   =  0.00D+00  THROCCDE=  1.00D-01  THROCCDE=  1.00D-01


 ZSYMEL=NOSYM
 

Geometry recognized as XYZ



 Recomputing integrals since basis changed


 Using spherical harmonics

 Library entry C      S 6-31G                selected for orbital group  1
 Library entry C      S 6-31++G              selected for orbital group  1
 Library entry C      P 6-31G                selected for orbital group  1
 Library entry C      P 6-31++G              selected for orbital group  1
 Library entry C      D 6-31G2D              selected for orbital group  1
 Library entry H      S 6-31G                selected for orbital group  2
 Library entry H      S 6-31++G              selected for orbital group  2
 Library entry H      P 6-31G2P              selected for orbital group  2

1PROGRAM * SEWARD (Integral evaluation for generally contracted gaussian basis sets)     Author: Roland Lindh, 1990

 Geometry written to block  1 of record 700


 Point group  C1  



 ATOMIC COORDINATES

 NR  ATOM    CHARGE       X              Y              Z

   1  C       6.00    0.000000000    0.000000000   -0.149364073
   2  H       1.00    0.703278530    0.703278530    1.947707320
   3  H       1.00   -0.703278530   -0.703278530    1.947707320
   4  H       1.00    1.316601620   -1.316601620   -1.057767500
   5  H       1.00   -1.316601620    1.316601620   -1.057767500

 Bond lengths in Bohr (Angstrom)

 1-2  2.320971738  1-3  2.320971738  1-4  2.071732713  1-5  2.071732713
     ( 1.228205347)     ( 1.228205347)     ( 1.096313735)     ( 1.096313735)

 Bond angles

  2-1-3   50.74752078   2-1-4  113.33935209   2-1-5  113.33935209   3-1-4  113.33935209

  3-1-5  113.33935209   4-1-5  127.98673272

 NUCLEAR CHARGE:                   10
 NUMBER OF PRIMITIVE AOS:          82
 NUMBER OF SYMMETRY AOS:           80
 NUMBER OF CONTRACTIONS:           59   (  59A   )
 NUMBER OF CORE ORBITALS:           1   (   1A   )
 NUMBER OF VALENCE ORBITALS:        8   (   8A   )


 NUCLEAR REPULSION ENERGY   12.82286528


 Eigenvalues of metric

         1 0.699E-02 0.803E-02 0.842E-02 0.101E-01 0.125E-01 0.198E-01 0.306E-01 0.333E-01


 Contracted 2-electron integrals neglected if value below      1.0D-11
 AO integral compression algorithm  1   Integral accuracy      1.0D-11

     8.651 MB (compressed) written to integral file ( 54.8%)


 NUMBER OF SORTED TWO-ELECTRON INTEGRALS:    1567335.     BUFFER LENGTH:  32768
 NUMBER OF SEGMENTS:   1  SEGMENT LENGTH:    1567335      RECORD LENGTH: 524288

 Memory used in sort:       2.12 MW

 SORT1 READ     2028348. AND WROTE     1494192. INTEGRALS IN      5 RECORDS. CPU TIME:     0.02 SEC, REAL TIME:     0.03 SEC
 SORT2 READ     1494192. AND WROTE     1567335. INTEGRALS IN     33 RECORDS. CPU TIME:     0.03 SEC, REAL TIME:     0.06 SEC

 FILE SIZES:   FILE 1:    16.4 MBYTE,  FILE 4:    21.0 MBYTE,   TOTAL:     37.4 MBYTE

 OPERATOR DM      FOR CENTER  0  COORDINATES:    0.000000    0.000000    0.000000


 **********************************************************************************************************************************
 DATASETS  * FILE   NREC   LENGTH (MB)   RECORD NAMES
              1      19       14.56       500      610      700      900      950      970     1000      129      960     1100   
                                          VAR    BASINP    GEOM    SYMINP    ZMAT    AOBASIS   BASIS     P2S    ABASIS      S 
                                         1400     1410     1200     1210     1080     1600     1650     1300     1700   
                                           T        V       H0       H01     AOSYM     SMH    MOLCAS    ERIS     OPER   

 PROGRAMS   *        TOTAL       INT
 CPU TIMES  *         0.26      0.18
 REAL TIME  *         0.37 SEC
 DISK USED  *        37.71 MB      
 **********************************************************************************************************************************

1PROGRAM * RHF-SCF (OPEN SHELL)       Authors: W. Meyer, H.-J. Werner


 NUMBER OF ELECTRONS:       5+    4-    SPACE SYMMETRY=1    SPIN SYMMETRY: Doublet 
 CONVERGENCE THRESHOLDS:    1.00E-06 (Density)    1.00E-07 (Energy)
 MAX. NUMBER OF ITERATIONS:       60
 INTERPOLATION TYPE:            DIIS
 INTERPOLATION STEPS:              2 (START)      1 (STEP)
 LEVEL SHIFTS:                 -0.30 (CLOSED)  0.00 (OPEN) 



 Orbital guess generated from atomic densities. Full valence occupancy:    5

 Molecular orbital dump at record        2100.2

 ITERATION    DDIFF          GRAD             ENERGY        2-EL.EN.            DIPOLE MOMENTS         DIIS   ORB.
    1      0.000D+00      0.000D+00       -39.72008632     43.011279   -0.00000    0.00000    1.06386    0    start
    2      0.000D+00      0.998D-02       -39.76347016     44.464073   -0.00000    0.00000    0.82467    1    diag,B
    3      0.471D-02      0.262D-02       -39.76667249     44.396627    0.00000   -0.00000    0.74092    2    diag,B
    4      0.192D-02      0.827D-03       -39.76708841     44.446845   -0.00000    0.00000    0.71952    3    diag,B
    5      0.770D-03      0.197D-03       -39.76711676     44.447569    0.00000   -0.00000    0.71442    4    diag,B
    6      0.217D-03      0.426D-04       -39.76711816     44.446892    0.00000    0.00000    0.71295    5    diag,B
    7      0.664D-04      0.903D-05       -39.76711822     44.446800   -0.00000   -0.00000    0.71253    6    fixocc
    8      0.192D-04      0.125D-05       -39.76711822     44.446773   -0.00000    0.00000    0.71249    7    diag,B
    9      0.208D-05      0.214D-06       -39.76711823     44.446778    0.00000   -0.00000    0.71249    8    diag,B
   10      0.402D-06      0.392D-07       -39.76711823     44.446777   -0.00000    0.00000    0.71248    0    orth

 Final alpha occupancy:   5
 Final beta  occupancy:   4

 !RHF STATE 1.1 Energy                -39.767118225035
 Nuclear energy                        12.82286528
 One-electron energy                  -74.81337201
 Two-electron energy                   22.22338850
 Virial quotient                       -1.00354544
 !RHF STATE 1.1 Dipole moment          -0.00000000     0.00000000     0.71248492
 Dipole moment /Debye                  -0.00000000     0.00000000     1.81083743

 Orbital energies:

         1.1          2.1          3.1          4.1          5.1          6.1          7.1
    -11.617859    -1.292760    -0.960836    -0.916412    -0.790860    -0.148398    -0.092696

 HOMO      5.1    -0.790860 =     -21.5204eV
 LUMO      6.1    -0.148398 =      -4.0381eV
 LUMO-HOMO         0.642462 =      17.4823eV


 **********************************************************************************************************************************
 DATASETS  * FILE   NREC   LENGTH (MB)   RECORD NAMES
              1      19       14.56       500      610      700      900      950      970     1000      129      960     1100   
                                          VAR    BASINP    GEOM    SYMINP    ZMAT    AOBASIS   BASIS     P2S    ABASIS      S 
                                         1400     1410     1200     1210     1080     1600     1650     1300     1700   
                                           T        V       H0       H01     AOSYM     SMH    MOLCAS    ERIS     OPER   

              2       4        0.46       700     1000      520     2100   
                                         GEOM     BASIS   MCVARS     RHF  

 PROGRAMS   *        TOTAL        HF       INT
 CPU TIMES  *         0.42      0.16      0.18
 REAL TIME  *         0.54 SEC
 DISK USED  *        37.71 MB      
 **********************************************************************************************************************************

1PROGRAM * MULTI (Direct Multiconfiguration SCF)       Authors: P.J. Knowles, H.-J. Werner (1984)     S.T. Elbert (1988)


 Number of closed-shell orbitals:   1 (   1 )
 Number of active  orbitals:        8 (   8 )
 Number of external orbitals:      50 (  50 )

 State symmetry 1

 Number of electrons:     7    Spin symmetry=Doublet   Space symmetry=1
 Number of states:        1
 Number of CSFs:       2352   (3920 determinants, 3920 intermediate states)

 Molecular orbitals read from record     2100.2  Type=RHF/CANONICAL (state 1.1)

 Wavefunction dump at record             2140.2

 Convergence thresholds  0.10E-04 (gradient)  0.10E-07 (energy)  0.10E-02 (step length)

 Number of orbital rotations:      458   (     8 Core/Active     50 Core/Virtual   0 Active/Active    400 Active/Virtual)
 Total number of variables:       4378


 ITER. MIC  NCI  NEG     ENERGY(VAR)     ENERGY(PROJ)   ENERGY CHANGE     GRAD(0)  GRAD(ORB)   GRAD(CI)     STEP       TIME

   1   40   23    0     -39.77103118     -39.84412350   -0.07309232    0.00895989 0.00017078 0.00014713  0.17D+01      0.20
   2   19   25    0     -39.84180915     -39.84286751   -0.00105836    0.02460342 0.00000005 0.00000027  0.17D+00      0.44
   3   36   12    0     -39.84286785     -39.84286785   -0.00000000    0.00002834 0.00000007 0.00000043  0.24D-03      0.57

 ** WVFN ****  CONVERGENCE REACHED, FINAL GRADIENT:  0.98D-07

 Gradient information for state 1.1 saved on record      5000.1


 First order charge density matrix for state 1.1 saved on record  2140.2 (density set 1)

 Results for state 1.1
 =====================

 !MCSCF STATE 1.1 Energy              -39.842867848694
 Nuclear energy                        12.82286528
 Kinetic energy                        39.79191937
 One electron energy                  -74.79567581
 Two electron energy                   22.12994268
 Virial ratio                           2.00128037

 !MCSCF STATE 1.1 Dipole moment        -0.00000000    -0.00000000     0.70652798
 Dipole moment /Debye                  -0.00000000    -0.00000000     1.79569739


 Natural orbital dump at molpro section  2140.2    (Orbital set 2)



 **********************************************************************************************************************************
 DATASETS  * FILE   NREC   LENGTH (MB)   RECORD NAMES
              1      21       16.52       500      610      700      900      950      970     1000      129      960     1100   
                                          VAR    BASINP    GEOM    SYMINP    ZMAT    AOBASIS   BASIS     P2S    ABASIS      S 
                                         1400     1410     1200     1210     1080     1600     1650     1300     1700     1380   
                                           T        V       H0       H01     AOSYM     SMH    MOLCAS    ERIS     OPER     JKOP   
                                         5000   
                                        MCGRAD    

              2       5        0.61       700     1000      520     2100     2140   
                                         GEOM     BASIS   MCVARS     RHF     MCSCF   

 PROGRAMS   *        TOTAL     MULTI        HF       INT
 CPU TIMES  *         1.06      0.64      0.16      0.18
 REAL TIME  *         1.23 SEC
 DISK USED  *        37.71 MB      
 **********************************************************************************************************************************


 PROGRAM * OPT (Geometry optimization)     Authors: F. Eckert and H.-J. Werner


 BFGS update of hessian

 *** Long output written to logfile /home/cayo/te/optg_cation_c2v_.log ***


 Geometry optimization using default procedure for command MULTI

 Geometry written to block  1 of record 700

 Making model hessian for cartesian coordinates

 Quadratic Steepest Descent - Minimum Search

 ITER.   ENERGY(OLD)    ENERGY(NEW)      DE          GRADMAX     GRADNORM    GRADRMS     STEPMAX     STEPLEN     STEPRMS   CPU-time
   1   -39.84286785   -39.84320294    -0.00033510  0.01514287  0.01735908  0.00192879  0.03926678  0.04464269  0.01996482      1.49
   2   -39.84320294   -39.84330817    -0.00010522  0.00892091  0.00957847  0.00106427  0.01580820  0.02681628  0.01199261      2.95
   3   -39.84330817   -39.84332453    -0.00001636  0.00180446  0.00237017  0.00026335  0.00890081  0.00975738  0.00436363      4.40
   4   -39.84332453   -39.84333470    -0.00001018  0.00125199  0.00138347  0.00015372  0.01420676  0.01471586  0.00658113      5.83
   5   -39.84333470   -39.84333493    -0.00000022  0.00029794  0.00037412  0.00004157  0.00125157  0.00152974  0.00068412      7.26

 END OF GEOMETRY OPTIMIZATION.

 Current geometry (xyz format, in Angstrom)

    5
 MULTI000/6-31++G(2D,2P)  ENERGY=-39.84333493
 C         -0.0000000000        0.0000000000       -0.0617213237
 H          0.3821764772        0.3821764772        1.0131873792
 H         -0.3821764772       -0.3821764772        1.0131873792
 H          0.6930508658       -0.6930508658       -0.5509108790
 H         -0.6930508658        0.6930508658       -0.5509108790

 **********************************************************************************************************************************

 Geometry written to block  1 of record 700


 **********************************************************************************************************************************
 DATASETS  * FILE   NREC   LENGTH (MB)   RECORD NAMES
              1      21       16.54       500      610      700      900      950      970     1000      129      960     1100   
                                          VAR    BASINP    GEOM    SYMINP    ZMAT    AOBASIS   BASIS     P2S    ABASIS      S 
                                         1400     1410     1200     1210     1080     1600     1650     1300     1700     1380   
                                           T        V       H0       H01     AOSYM     SMH    MOLCAS    ERIS     OPER     JKOP   
                                         5000   
                                        MCGRAD    

              2       5        0.61       700     1000      520     2100     2140   
                                         GEOM     BASIS   MCVARS     RHF     MCSCF   

 PROGRAMS   *        TOTAL      OPTG     MULTI        HF       INT
 CPU TIMES  *         8.32      7.26      0.64      0.16      0.18
 REAL TIME  *         9.37 SEC
 DISK USED  *        38.28 MB      
 **********************************************************************************************************************************

     OPTG(MULTI)        MULTI           HF-SCF  
    -39.84333493    -39.84286785    -39.76711823
 **********************************************************************************************************************************
 Variable memory released
