
 Primary working directories    : /tmp/cayo
 Secondary working directories  : /tmp/cayo
 Wavefunction directory         : /home/cayo/wfu/
 Main file repository           : /tmp/cayo/

 SHA1      : 960ce83de8be0427555cf121dea4debc26c720b5
 NAME      : 2012.1.960ce83
 ARCHNAME  : Linux/x86_64
 FC        : /opt/intel/composer_xe_2013_sp1.2.144/bin/intel64/ifort
 FCVERSION : 14.0.2
 BLASLIB   : -Wl,-_start-group /opt/intel/mkl/lib/intel64/libmkl_intel_ilp64.a /opt/intel/mkl/lib/intel64/libmkl_sequential.a /opt/intel/mkl/lib/intel64/libmkl_core.a -Wl,-_end-group
 id        : liege

 Nodes     nprocs
 cayo-pc      1

 Using customized tuning parameters: mindgm=7; mindgv=24; mindgc=1; mindgr=1; noblas=0; minvec=7
 default implementation of scratch files=df  

 memory,300,m
 basis=6-31++G(2d,2p)
 symmetry,nosym
 thresh,pspace=0.4
 angstrom
 geometry={
  C          0.0000000009        0.0000000052       -0.0000000001
  H         -0.7569586713        0.7569586639        0.3776374633
  H          0.7569586615       -0.7569586690        0.3776374600
  H          0.7569586701        0.7569586657       -0.3776374645
  H         -0.7569586628       -0.7569586672       -0.3776374587
          }
 noorient
 {hf,orbital=2100.2;wf,9,1,1}
 {multi;start,2100.2;occ,9;pspace,0.4;wf,9,1,1}
 {optg}

 Variables initialized (778), CPU time= 0.00 sec
 Commands  initialized (547), CPU time= 0.01 sec, 516 directives.
 Default parameters read. Elapsed time= 0.04 sec

 Checking input...
 Passed
1


                                         ***  PROGRAM SYSTEM MOLPRO  ***
                         Copyright, University College Cardiff Consultants Limited, 2008

                                    Version 2012.1 linked Apr  1 2014 15:33:03


 **********************************************************************************************************************************
 LABEL *                                                                                 
 Linux-4.15.0-65-generic/cayo-pc(x86_64) 64 bit serial version                           DATE: 29-Oct-19          TIME: 16:36:23  
 **********************************************************************************************************************************

 SHA1:             960ce83de8be0427555cf121dea4debc26c720b5
 **********************************************************************************************************************************

 Variable memory set to  300000000 words,  buffer space   230000 words

 SETTING BASIS          =    6-31++G(2D,2P)

 THRESHOLDS:

 ZERO    =  1.00D-12  ONEINT  =  1.00D-12  TWOINT  =  1.00D-11  PREFAC  =  1.00D-14  LOCALI  =  1.00D-09  EORDER  =  1.00D-04
 ENERGY  =  0.00D+00  ETEST   =  0.00D+00  EDENS   =  0.00D+00  THRDEDEF=  1.00D-06  GRADIENT=  1.00D-02  STEP    =  1.00D-03
 ORBITAL =  1.00D-05  CIVEC   =  1.00D-05  COEFF   =  1.00D-04  PRINTCI =  5.00D-02  PUNCHCI =  9.90D+01  OPTGRAD =  3.00D-04
 OPTENERG=  1.00D-06  OPTSTEP =  3.00D-04  THRGRAD =  1.00D-10  COMPRESS=  1.00D-11  VARMIN  =  1.00D-07  VARMAX  =  1.00D-03
 THRDOUB =  0.00D+00  THRDIV  =  1.00D-05  THRRED  =  1.00D-07  THRPSP  =  4.00D-01  THRDC   =  1.00D-10  THRCS   =  1.00D-10
 THRNRM  =  1.00D-08  THREQ   =  0.00D+00  THRDE   =  1.00D+00  THRREF  =  1.00D-05  SPARFAC =  1.00D+00  THRDLP  =  1.00D-07
 THRDIA  =  1.00D-10  THRDLS  =  1.00D-07  THRGPS  =  0.00D+00  THRKEX  =  0.00D+00  THRDIS  =  2.00D-01  THRVAR  =  1.00D-10
 THRLOC  =  1.00D-06  THRGAP  =  1.00D-06  THRLOCT = -1.00D+00  THRGAPT = -1.00D+00  THRORB  =  1.00D-06  THRMLTP =  0.00D+00
 THRCPQCI=  1.00D-10  KEXTA   =  0.00D+00  THRCOARS=  0.00D+00  SYMTOL  =  1.00D-06  GRADTOL =  1.00D-06  THROVL  =  1.00D-08
 THRORTH =  1.00D-08  GRID    =  1.00D-06  GRIDMAX =  1.00D-03  DTMAX   =  0.00D+00  THROCCDE=  1.00D-01  THROCCDE=  1.00D-01


 ZSYMEL=NOSYM
 ZUNIT=ANG
 

Geometry recognized as XYZ



 Recomputing integrals since basis changed


 Using spherical harmonics

 Library entry C      S 6-31G                selected for orbital group  1
 Library entry C      S 6-31++G              selected for orbital group  1
 Library entry C      P 6-31G                selected for orbital group  1
 Library entry C      P 6-31++G              selected for orbital group  1
 Library entry C      D 6-31G2D              selected for orbital group  1
 Library entry H      S 6-31G                selected for orbital group  2
 Library entry H      S 6-31++G              selected for orbital group  2
 Library entry H      P 6-31G2P              selected for orbital group  2

1PROGRAM * SEWARD (Integral evaluation for generally contracted gaussian basis sets)     Author: Roland Lindh, 1990

 Geometry written to block  1 of record 700


 Point group  C1  



 ATOMIC COORDINATES

 NR  ATOM    CHARGE       X              Y              Z

   1  C       6.00    0.000000002    0.000000010   -0.000000000
   2  H       1.00   -1.430444582    1.430444568    0.713631383
   3  H       1.00    1.430444563   -1.430444577    0.713631376
   4  H       1.00    1.430444579    1.430444571   -0.713631385
   5  H       1.00   -1.430444565   -1.430444574   -0.713631374

 Bond lengths in Bohr (Angstrom)

 1-2  2.145137079  1-3  2.145137082  1-4  2.145137078  1-5  2.145137083
     ( 1.135157653)     ( 1.135157654)     ( 1.135157652)     ( 1.135157654)

 Bond angles

  2-1-3  141.13768336   2-1-4   96.35405597   2-1-5   96.35405494   3-1-4   96.35405532

  3-1-5   96.35405429   4-1-5  141.13768338

 NUCLEAR CHARGE:                   10
 NUMBER OF PRIMITIVE AOS:          82
 NUMBER OF SYMMETRY AOS:           80
 NUMBER OF CONTRACTIONS:           59   (  59A   )
 NUMBER OF CORE ORBITALS:           1   (   1A   )
 NUMBER OF VALENCE ORBITALS:        8   (   8A   )


 NUCLEAR REPULSION ENERGY   12.93353720


 Eigenvalues of metric

         1 0.630E-02 0.803E-02 0.803E-02 0.949E-02 0.118E-01 0.172E-01 0.172E-01 0.394E-01


 Contracted 2-electron integrals neglected if value below      1.0D-11
 AO integral compression algorithm  1   Integral accuracy      1.0D-11

     8.651 MB (compressed) written to integral file ( 53.4%)


 NUMBER OF SORTED TWO-ELECTRON INTEGRALS:    1567335.     BUFFER LENGTH:  32768
 NUMBER OF SEGMENTS:   1  SEGMENT LENGTH:    1567335      RECORD LENGTH: 524288

 Memory used in sort:       2.12 MW

 SORT1 READ     2028348. AND WROTE     1484915. INTEGRALS IN      5 RECORDS. CPU TIME:     0.02 SEC, REAL TIME:     0.04 SEC
 SORT2 READ     1484915. AND WROTE     1567335. INTEGRALS IN     33 RECORDS. CPU TIME:     0.04 SEC, REAL TIME:     0.06 SEC

 FILE SIZES:   FILE 1:    16.4 MBYTE,  FILE 4:    21.0 MBYTE,   TOTAL:     37.4 MBYTE

 OPERATOR DM      FOR CENTER  0  COORDINATES:    0.000000    0.000000    0.000000


 **********************************************************************************************************************************
 DATASETS  * FILE   NREC   LENGTH (MB)   RECORD NAMES
              1      19       14.46       500      610      700      900      950      970     1000      129      960     1100   
                                          VAR    BASINP    GEOM    SYMINP    ZMAT    AOBASIS   BASIS     P2S    ABASIS      S 
                                         1400     1410     1200     1210     1080     1600     1650     1300     1700   
                                           T        V       H0       H01     AOSYM     SMH    MOLCAS    ERIS     OPER   

 PROGRAMS   *        TOTAL       INT
 CPU TIMES  *         0.27      0.19
 REAL TIME  *         0.37 SEC
 DISK USED  *        37.71 MB      
 **********************************************************************************************************************************

1PROGRAM * RHF-SCF (OPEN SHELL)       Authors: W. Meyer, H.-J. Werner


 NUMBER OF ELECTRONS:       5+    4-    SPACE SYMMETRY=1    SPIN SYMMETRY: Doublet 
 CONVERGENCE THRESHOLDS:    1.00E-06 (Density)    1.00E-07 (Energy)
 MAX. NUMBER OF ITERATIONS:       60
 INTERPOLATION TYPE:            DIIS
 INTERPOLATION STEPS:              2 (START)      1 (STEP)
 LEVEL SHIFTS:                 -0.30 (CLOSED)  0.00 (OPEN) 



 Orbital guess generated from atomic densities. Full valence occupancy:    5

 Molecular orbital dump at record        2100.2

 ITERATION    DDIFF          GRAD             ENERGY        2-EL.EN.            DIPOLE MOMENTS         DIIS   ORB.
    1      0.000D+00      0.000D+00       -39.72433015     43.444941   -0.00000   -0.00000    0.00000    0    start
    2      0.000D+00      0.855D-02       -39.75570148     44.935063   -0.00000   -0.00000    0.00000    1    diag,B
    3      0.449D-02      0.236D-02       -39.75810533     44.846048   -0.00000   -0.00000    0.00000    2    diag,B
    4      0.195D-02      0.727D-03       -39.75846969     44.889724   -0.00000   -0.00000    0.00000    3    diag,B
    5      0.891D-03      0.154D-03       -39.75849385     44.893705   -0.00000   -0.00000    0.00000    4    diag,B
    6      0.204D-03      0.352D-04       -39.75849581     44.892407   -0.00000   -0.00000    0.00000    5    diag,B
    7      0.609D-04      0.913D-05       -39.75849594     44.892593   -0.00000   -0.00000    0.00000    6    fixocc
    8      0.140D-04      0.132D-05       -39.75849594     44.892528   -0.00000   -0.00000    0.00000    7    diag,B
    9      0.279D-05      0.187D-06       -39.75849594     44.892551   -0.00000   -0.00000    0.00000    8    diag,B
   10      0.348D-06      0.349D-07       -39.75849594     44.892548   -0.00000   -0.00000    0.00000    0    orth

 Final alpha occupancy:   5
 Final beta  occupancy:   4

 !RHF STATE 1.1 Energy                -39.758495938283
 Nuclear energy                        12.93353720
 One-electron energy                  -75.13830737
 Two-electron energy                   22.44627424
 Virial quotient                       -1.00262664
 !RHF STATE 1.1 Dipole moment          -0.00000000    -0.00000001     0.00000000
 Dipole moment /Debye                  -0.00000001    -0.00000003     0.00000000

 Orbital energies:

         1.1          2.1          3.1          4.1          5.1          6.1          7.1
    -11.596371    -1.275140    -0.922130    -0.922130    -0.814215    -0.134102    -0.114533

 HOMO      5.1    -0.814215 =     -22.1559eV
 LUMO      6.1    -0.134102 =      -3.6491eV
 LUMO-HOMO         0.680114 =      18.5068eV


 **********************************************************************************************************************************
 DATASETS  * FILE   NREC   LENGTH (MB)   RECORD NAMES
              1      19       14.46       500      610      700      900      950      970     1000      129      960     1100   
                                          VAR    BASINP    GEOM    SYMINP    ZMAT    AOBASIS   BASIS     P2S    ABASIS      S 
                                         1400     1410     1200     1210     1080     1600     1650     1300     1700   
                                           T        V       H0       H01     AOSYM     SMH    MOLCAS    ERIS     OPER   

              2       4        0.46       700     1000      520     2100   
                                         GEOM     BASIS   MCVARS     RHF  

 PROGRAMS   *        TOTAL        HF       INT
 CPU TIMES  *         0.44      0.17      0.19
 REAL TIME  *         0.54 SEC
 DISK USED  *        37.71 MB      
 **********************************************************************************************************************************

1PROGRAM * MULTI (Direct Multiconfiguration SCF)       Authors: P.J. Knowles, H.-J. Werner (1984)     S.T. Elbert (1988)


 Number of closed-shell orbitals:   1 (   1 )
 Number of active  orbitals:        8 (   8 )
 Number of external orbitals:      50 (  50 )

 State symmetry 1

 Number of electrons:     7    Spin symmetry=Doublet   Space symmetry=1
 Number of states:        1
 Number of CSFs:       2352   (3920 determinants, 3920 intermediate states)

 Molecular orbitals read from record     2100.2  Type=RHF/CANONICAL (state 1.1)

 Wavefunction dump at record             2140.2

 Convergence thresholds  0.10E-04 (gradient)  0.10E-07 (energy)  0.10E-02 (step length)

 Number of orbital rotations:      458   (     8 Core/Active     50 Core/Virtual   0 Active/Active    400 Active/Virtual)
 Total number of variables:       4378


 ITER. MIC  NCI  NEG     ENERGY(VAR)     ENERGY(PROJ)   ENERGY CHANGE     GRAD(0)  GRAD(ORB)   GRAD(CI)     STEP       TIME

   1   40   23    0     -39.76396353     -39.83660193   -0.07263840    0.01072959 0.00010995 0.00039915  0.17D+01      0.21
   2   18   26    0     -39.83352025     -39.83432783   -0.00080758    0.01941842 0.00000003 0.00000024  0.14D+00      0.43
   3   29   10    0     -39.83432801     -39.83432801   -0.00000000    0.00001468 0.00000007 0.00000053  0.11D-03      0.56

 ** WVFN ****  CONVERGENCE REACHED, FINAL GRADIENT:  0.96D-07

 Gradient information for state 1.1 saved on record      5000.1


 First order charge density matrix for state 1.1 saved on record  2140.2 (density set 1)

 Results for state 1.1
 =====================

 !MCSCF STATE 1.1 Energy              -39.834328008409
 Nuclear energy                        12.93353720
 Kinetic energy                        39.82239839
 One electron energy                  -75.09564178
 Two electron energy                   22.32777657
 Virial ratio                           2.00029957

 !MCSCF STATE 1.1 Dipole moment        -0.00000000    -0.00000001     0.00000000
 Dipole moment /Debye                  -0.00000001    -0.00000003     0.00000000


 Natural orbital dump at molpro section  2140.2    (Orbital set 2)



 **********************************************************************************************************************************
 DATASETS  * FILE   NREC   LENGTH (MB)   RECORD NAMES
              1      21       16.42       500      610      700      900      950      970     1000      129      960     1100   
                                          VAR    BASINP    GEOM    SYMINP    ZMAT    AOBASIS   BASIS     P2S    ABASIS      S 
                                         1400     1410     1200     1210     1080     1600     1650     1300     1700     1380   
                                           T        V       H0       H01     AOSYM     SMH    MOLCAS    ERIS     OPER     JKOP   
                                         5000   
                                        MCGRAD    

              2       5        0.61       700     1000      520     2100     2140   
                                         GEOM     BASIS   MCVARS     RHF     MCSCF   

 PROGRAMS   *        TOTAL     MULTI        HF       INT
 CPU TIMES  *         1.07      0.63      0.17      0.19
 REAL TIME  *         1.25 SEC
 DISK USED  *        37.71 MB      
 **********************************************************************************************************************************


 PROGRAM * OPT (Geometry optimization)     Authors: F. Eckert and H.-J. Werner


 BFGS update of hessian

 *** Long output written to logfile /home/cayo/te/optg_cation_d2d.log ***


 Geometry optimization using default procedure for command MULTI

 Geometry written to block  1 of record 700

 Making model hessian for cartesian coordinates

 Quadratic Steepest Descent - Minimum Search

 ITER.   ENERGY(OLD)    ENERGY(NEW)      DE          GRADMAX     GRADNORM    GRADRMS     STEPMAX     STEPLEN     STEPRMS   CPU-time
   1   -39.83432801   -39.83432801    -0.00000001  0.00003460  0.00003526  0.00000392  0.00017762  0.00017835  0.00007976      1.33

 END OF GEOMETRY OPTIMIZATION.

 Current geometry (xyz format, in Angstrom)

    5
 MULTI000/6-31++G(2D,2P)  ENERGY=-39.83432801
 C          0.0000000023        0.0000000075       -0.0000000001
 H         -0.7569725960        0.7569725848        0.3775945771
 H          0.7569725819       -0.7569725932        0.3775945732
 H          0.7569725941        0.7569725888       -0.3775945794
 H         -0.7569725839       -0.7569725892       -0.3775945707

 **********************************************************************************************************************************

 Geometry written to block  1 of record 700


 **********************************************************************************************************************************
 DATASETS  * FILE   NREC   LENGTH (MB)   RECORD NAMES
              1      21       16.42       500      610      700      900      950      970     1000      129      960     1100   
                                          VAR    BASINP    GEOM    SYMINP    ZMAT    AOBASIS   BASIS     P2S    ABASIS      S 
                                         1400     1410     1200     1210     1080     1600     1650     1300     1700     1380   
                                           T        V       H0       H01     AOSYM     SMH    MOLCAS    ERIS     OPER     JKOP   
                                         5000   
                                        MCGRAD    

              2       5        0.61       700     1000      520     2100     2140   
                                         GEOM     BASIS   MCVARS     RHF     MCSCF   

 PROGRAMS   *        TOTAL      OPTG     MULTI        HF       INT
 CPU TIMES  *         2.40      1.33      0.63      0.17      0.19
 REAL TIME  *         3.15 SEC
 DISK USED  *        38.02 MB      
 **********************************************************************************************************************************

     OPTG(MULTI)        MULTI           HF-SCF  
    -39.83432801    -39.83432801    -39.75849594
 **********************************************************************************************************************************
 Variable memory released
